+ 0 0 1 tcp 40 ------- 0 0.0 2.0 0 0
- 0 0 1 tcp 40 ------- 0 0.0 2.0 0 0
r 0.10016 0 1 tcp 40 ------- 0 0.0 2.0 0 0
+ 0.10016 1 2 tcp 40 ------- 0 0.0 2.0 0 0
- 0.10016 1 2 tcp 40 ------- 0 0.0 2.0 0 0
r 0.20048 1 2 tcp 40 ------- 0 0.0 2.0 0 0
+ 0.20048 2 1 ack 40 ------- 0 2.0 0.0 0 1
- 0.20048 2 1 ack 40 ------- 0 2.0 0.0 0 1
r 0.3008 2 1 ack 40 ------- 0 2.0 0.0 0 1
+ 0.3008 1 0 ack 40 ------- 0 2.0 0.0 0 1
- 0.3008 1 0 ack 40 ------- 0 2.0 0.0 0 1
r 0.40096 1 0 ack 40 ------- 0 2.0 0.0 0 1
+ 0.40096 0 1 tcp 1040 ------- 0 0.0 2.0 1 2
- 0.40096 0 1 tcp 1040 ------- 0 0.0 2.0 1 2
+ 0.40096 0 1 tcp 1040 ------- 0 0.0 2.0 2 3
- 0.40512 0 1 tcp 1040 ------- 0 0.0 2.0 2 3
r 0.50512 0 1 tcp 1040 ------- 0 0.0 2.0 1 2
+ 0.50512 1 2 tcp 1040 ------- 0 0.0 2.0 1 2
- 0.50512 1 2 tcp 1040 ------- 0 0.0 2.0 1 2
r 0.50928 0 1 tcp 1040 ------- 0 0.0 2.0 2 3
+ 0.50928 1 2 tcp 1040 ------- 0 0.0 2.0 2 3
- 0.51344 1 2 tcp 1040 ------- 0 0.0 2.0 2 3
r 0.61344 1 2 tcp 1040 ------- 0 0.0 2.0 1 2
+ 0.61344 2 1 ack 40 ------- 0 2.0 0.0 1 4
- 0.61344 2 1 ack 40 ------- 0 2.0 0.0 1 4
r 0.62176 1 2 tcp 1040 ------- 0 0.0 2.0 2 3
+ 0.62176 2 1 ack 40 ------- 0 2.0 0.0 2 5
- 0.62176 2 1 ack 40 ------- 0 2.0 0.0 2 5
r 0.71376 2 1 ack 40 ------- 0 2.0 0.0 1 4
+ 0.71376 1 0 ack 40 ------- 0 2.0 0.0 1 4
- 0.71376 1 0 ack 40 ------- 0 2.0 0.0 1 4
r 0.72208 2 1 ack 40 ------- 0 2.0 0.0 2 5
+ 0.72208 1 0 ack 40 ------- 0 2.0 0.0 2 5
- 0.72208 1 0 ack 40 ------- 0 2.0 0.0 2 5
r 0.81392 1 0 ack 40 ------- 0 2.0 0.0 1 4
+ 0.81392 0 1 tcp 1040 ------- 0 0.0 2.0 3 6
- 0.81392 0 1 tcp 1040 ------- 0 0.0 2.0 3 6
+ 0.81392 0 1 tcp 1040 ------- 0 0.0 2.0 4 7
- 0.81808 0 1 tcp 1040 ------- 0 0.0 2.0 4 7
r 0.82224 1 0 ack 40 ------- 0 2.0 0.0 2 5
+ 0.82224 0 1 tcp 1040 ------- 0 0.0 2.0 5 8
+ 0.82224 0 1 tcp 1040 ------- 0 0.0 2.0 6 9
- 0.82224 0 1 tcp 1040 ------- 0 0.0 2.0 5 8
- 0.8264 0 1 tcp 1040 ------- 0 0.0 2.0 6 9
r 0.91808 0 1 tcp 1040 ------- 0 0.0 2.0 3 6
+ 0.91808 1 2 tcp 1040 ------- 0 0.0 2.0 3 6
- 0.91808 1 2 tcp 1040 ------- 0 0.0 2.0 3 6
r 0.92224 0 1 tcp 1040 ------- 0 0.0 2.0 4 7
+ 0.92224 1 2 tcp 1040 ------- 0 0.0 2.0 4 7
- 0.9264 1 2 tcp 1040 ------- 0 0.0 2.0 4 7
r 0.9264 0 1 tcp 1040 ------- 0 0.0 2.0 5 8
+ 0.9264 1 2 tcp 1040 ------- 0 0.0 2.0 5 8
r 0.93056 0 1 tcp 1040 ------- 0 0.0 2.0 6 9
+ 0.93056 1 2 tcp 1040 ------- 0 0.0 2.0 6 9
- 0.93472 1 2 tcp 1040 ------- 0 0.0 2.0 5 8
- 0.94304 1 2 tcp 1040 ------- 0 0.0 2.0 6 9
r 1.0264 1 2 tcp 1040 ------- 0 0.0 2.0 3 6
+ 1.0264 2 1 ack 40 ------- 0 2.0 0.0 3 10
- 1.0264 2 1 ack 40 ------- 0 2.0 0.0 3 10
r 1.03472 1 2 tcp 1040 ------- 0 0.0 2.0 4 7
+ 1.03472 2 1 ack 40 ------- 0 2.0 0.0 4 11
- 1.03472 2 1 ack 40 ------- 0 2.0 0.0 4 11
r 1.04304 1 2 tcp 1040 ------- 0 0.0 2.0 5 8
+ 1.04304 2 1 ack 40 ------- 0 2.0 0.0 5 12
- 1.04304 2 1 ack 40 ------- 0 2.0 0.0 5 12
r 1.05136 1 2 tcp 1040 ------- 0 0.0 2.0 6 9
+ 1.05136 2 1 ack 40 ------- 0 2.0 0.0 6 13
- 1.05136 2 1 ack 40 ------- 0 2.0 0.0 6 13
r 1.12672 2 1 ack 40 ------- 0 2.0 0.0 3 10
+ 1.12672 1 0 ack 40 ------- 0 2.0 0.0 3 10
- 1.12672 1 0 ack 40 ------- 0 2.0 0.0 3 10
r 1.13504 2 1 ack 40 ------- 0 2.0 0.0 4 11
+ 1.13504 1 0 ack 40 ------- 0 2.0 0.0 4 11
- 1.13504 1 0 ack 40 ------- 0 2.0 0.0 4 11
r 1.14336 2 1 ack 40 ------- 0 2.0 0.0 5 12
+ 1.14336 1 0 ack 40 ------- 0 2.0 0.0 5 12
- 1.14336 1 0 ack 40 ------- 0 2.0 0.0 5 12
r 1.15168 2 1 ack 40 ------- 0 2.0 0.0 6 13
+ 1.15168 1 0 ack 40 ------- 0 2.0 0.0 6 13
- 1.15168 1 0 ack 40 ------- 0 2.0 0.0 6 13
r 1.22688 1 0 ack 40 ------- 0 2.0 0.0 3 10
+ 1.22688 0 1 tcp 1040 ------- 0 0.0 2.0 7 14
- 1.22688 0 1 tcp 1040 ------- 0 0.0 2.0 7 14
+ 1.22688 0 1 tcp 1040 ------- 0 0.0 2.0 8 15
- 1.23104 0 1 tcp 1040 ------- 0 0.0 2.0 8 15
r 1.2352 1 0 ack 40 ------- 0 2.0 0.0 4 11
+ 1.2352 0 1 tcp 1040 ------- 0 0.0 2.0 9 16
- 1.2352 0 1 tcp 1040 ------- 0 0.0 2.0 9 16
+ 1.2352 0 1 tcp 1040 ------- 0 0.0 2.0 10 17
- 1.23936 0 1 tcp 1040 ------- 0 0.0 2.0 10 17
r 1.24352 1 0 ack 40 ------- 0 2.0 0.0 5 12
+ 1.24352 0 1 tcp 1040 ------- 0 0.0 2.0 11 18
+ 1.24352 0 1 tcp 1040 ------- 0 0.0 2.0 12 19
- 1.24352 0 1 tcp 1040 ------- 0 0.0 2.0 11 18
- 1.24768 0 1 tcp 1040 ------- 0 0.0 2.0 12 19
r 1.25184 1 0 ack 40 ------- 0 2.0 0.0 6 13
+ 1.25184 0 1 tcp 1040 ------- 0 0.0 2.0 13 20
- 1.25184 0 1 tcp 1040 ------- 0 0.0 2.0 13 20
+ 1.25184 0 1 tcp 1040 ------- 0 0.0 2.0 14 21
- 1.256 0 1 tcp 1040 ------- 0 0.0 2.0 14 21
r 1.33104 0 1 tcp 1040 ------- 0 0.0 2.0 7 14
+ 1.33104 1 2 tcp 1040 ------- 0 0.0 2.0 7 14
- 1.33104 1 2 tcp 1040 ------- 0 0.0 2.0 7 14
r 1.3352 0 1 tcp 1040 ------- 0 0.0 2.0 8 15
+ 1.3352 1 2 tcp 1040 ------- 0 0.0 2.0 8 15
r 1.33936 0 1 tcp 1040 ------- 0 0.0 2.0 9 16
+ 1.33936 1 2 tcp 1040 ------- 0 0.0 2.0 9 16
- 1.33936 1 2 tcp 1040 ------- 0 0.0 2.0 8 15
r 1.34352 0 1 tcp 1040 ------- 0 0.0 2.0 10 17
+ 1.34352 1 2 tcp 1040 ------- 0 0.0 2.0 10 17
r 1.34768 0 1 tcp 1040 ------- 0 0.0 2.0 11 18
+ 1.34768 1 2 tcp 1040 ------- 0 0.0 2.0 11 18
- 1.34768 1 2 tcp 1040 ------- 0 0.0 2.0 9 16
r 1.35184 0 1 tcp 1040 ------- 0 0.0 2.0 12 19
+ 1.35184 1 2 tcp 1040 ------- 0 0.0 2.0 12 19
r 1.356 0 1 tcp 1040 ------- 0 0.0 2.0 13 20
+ 1.356 1 2 tcp 1040 ------- 0 0.0 2.0 13 20
- 1.356 1 2 tcp 1040 ------- 0 0.0 2.0 10 17
r 1.36016 0 1 tcp 1040 ------- 0 0.0 2.0 14 21
+ 1.36016 1 2 tcp 1040 ------- 0 0.0 2.0 14 21
- 1.36432 1 2 tcp 1040 ------- 0 0.0 2.0 11 18
- 1.37264 1 2 tcp 1040 ------- 0 0.0 2.0 12 19
- 1.38096 1 2 tcp 1040 ------- 0 0.0 2.0 13 20
- 1.38928 1 2 tcp 1040 ------- 0 0.0 2.0 14 21
r 1.43936 1 2 tcp 1040 ------- 0 0.0 2.0 7 14
+ 1.43936 2 1 ack 40 ------- 0 2.0 0.0 7 22
- 1.43936 2 1 ack 40 ------- 0 2.0 0.0 7 22
r 1.44768 1 2 tcp 1040 ------- 0 0.0 2.0 8 15
+ 1.44768 2 1 ack 40 ------- 0 2.0 0.0 8 23
- 1.44768 2 1 ack 40 ------- 0 2.0 0.0 8 23
r 1.456 1 2 tcp 1040 ------- 0 0.0 2.0 9 16
+ 1.456 2 1 ack 40 ------- 0 2.0 0.0 9 24
- 1.456 2 1 ack 40 ------- 0 2.0 0.0 9 24
r 1.46432 1 2 tcp 1040 ------- 0 0.0 2.0 10 17
+ 1.46432 2 1 ack 40 ------- 0 2.0 0.0 10 25
- 1.46432 2 1 ack 40 ------- 0 2.0 0.0 10 25
r 1.47264 1 2 tcp 1040 ------- 0 0.0 2.0 11 18
+ 1.47264 2 1 ack 40 ------- 0 2.0 0.0 11 26
- 1.47264 2 1 ack 40 ------- 0 2.0 0.0 11 26
r 1.48096 1 2 tcp 1040 ------- 0 0.0 2.0 12 19
+ 1.48096 2 1 ack 40 ------- 0 2.0 0.0 12 27
- 1.48096 2 1 ack 40 ------- 0 2.0 0.0 12 27
r 1.48928 1 2 tcp 1040 ------- 0 0.0 2.0 13 20
+ 1.48928 2 1 ack 40 ------- 0 2.0 0.0 13 28
- 1.48928 2 1 ack 40 ------- 0 2.0 0.0 13 28
r 1.4976 1 2 tcp 1040 ------- 0 0.0 2.0 14 21
+ 1.4976 2 1 ack 40 ------- 0 2.0 0.0 14 29
- 1.4976 2 1 ack 40 ------- 0 2.0 0.0 14 29
r 1.53968 2 1 ack 40 ------- 0 2.0 0.0 7 22
+ 1.53968 1 0 ack 40 ------- 0 2.0 0.0 7 22
- 1.53968 1 0 ack 40 ------- 0 2.0 0.0 7 22
r 1.548 2 1 ack 40 ------- 0 2.0 0.0 8 23
+ 1.548 1 0 ack 40 ------- 0 2.0 0.0 8 23
- 1.548 1 0 ack 40 ------- 0 2.0 0.0 8 23
r 1.55632 2 1 ack 40 ------- 0 2.0 0.0 9 24
+ 1.55632 1 0 ack 40 ------- 0 2.0 0.0 9 24
- 1.55632 1 0 ack 40 ------- 0 2.0 0.0 9 24
r 1.56464 2 1 ack 40 ------- 0 2.0 0.0 10 25
+ 1.56464 1 0 ack 40 ------- 0 2.0 0.0 10 25
- 1.56464 1 0 ack 40 ------- 0 2.0 0.0 10 25
r 1.57296 2 1 ack 40 ------- 0 2.0 0.0 11 26
+ 1.57296 1 0 ack 40 ------- 0 2.0 0.0 11 26
- 1.57296 1 0 ack 40 ------- 0 2.0 0.0 11 26
r 1.58128 2 1 ack 40 ------- 0 2.0 0.0 12 27
+ 1.58128 1 0 ack 40 ------- 0 2.0 0.0 12 27
- 1.58128 1 0 ack 40 ------- 0 2.0 0.0 12 27
r 1.5896 2 1 ack 40 ------- 0 2.0 0.0 13 28
+ 1.5896 1 0 ack 40 ------- 0 2.0 0.0 13 28
- 1.5896 1 0 ack 40 ------- 0 2.0 0.0 13 28
r 1.59792 2 1 ack 40 ------- 0 2.0 0.0 14 29
+ 1.59792 1 0 ack 40 ------- 0 2.0 0.0 14 29
- 1.59792 1 0 ack 40 ------- 0 2.0 0.0 14 29
r 1.63984 1 0 ack 40 ------- 0 2.0 0.0 7 22
+ 1.63984 0 1 tcp 1040 ------- 0 0.0 2.0 15 30
- 1.63984 0 1 tcp 1040 ------- 0 0.0 2.0 15 30
+ 1.63984 0 1 tcp 1040 ------- 0 0.0 2.0 16 31
- 1.644 0 1 tcp 1040 ------- 0 0.0 2.0 16 31
r 1.64816 1 0 ack 40 ------- 0 2.0 0.0 8 23
+ 1.64816 0 1 tcp 1040 ------- 0 0.0 2.0 17 32
- 1.64816 0 1 tcp 1040 ------- 0 0.0 2.0 17 32
+ 1.64816 0 1 tcp 1040 ------- 0 0.0 2.0 18 33
- 1.65232 0 1 tcp 1040 ------- 0 0.0 2.0 18 33
r 1.65648 1 0 ack 40 ------- 0 2.0 0.0 9 24
+ 1.65648 0 1 tcp 1040 ------- 0 0.0 2.0 19 34
- 1.65648 0 1 tcp 1040 ------- 0 0.0 2.0 19 34
+ 1.65648 0 1 tcp 1040 ------- 0 0.0 2.0 20 35
- 1.66064 0 1 tcp 1040 ------- 0 0.0 2.0 20 35
r 1.6648 1 0 ack 40 ------- 0 2.0 0.0 10 25
+ 1.6648 0 1 tcp 1040 ------- 0 0.0 2.0 21 36
- 1.6648 0 1 tcp 1040 ------- 0 0.0 2.0 21 36
+ 1.6648 0 1 tcp 1040 ------- 0 0.0 2.0 22 37
- 1.66896 0 1 tcp 1040 ------- 0 0.0 2.0 22 37
r 1.67312 1 0 ack 40 ------- 0 2.0 0.0 11 26
+ 1.67312 0 1 tcp 1040 ------- 0 0.0 2.0 23 38
- 1.67312 0 1 tcp 1040 ------- 0 0.0 2.0 23 38
+ 1.67312 0 1 tcp 1040 ------- 0 0.0 2.0 24 39
- 1.67728 0 1 tcp 1040 ------- 0 0.0 2.0 24 39
r 1.68144 1 0 ack 40 ------- 0 2.0 0.0 12 27
+ 1.68144 0 1 tcp 1040 ------- 0 0.0 2.0 25 40
- 1.68144 0 1 tcp 1040 ------- 0 0.0 2.0 25 40
+ 1.68144 0 1 tcp 1040 ------- 0 0.0 2.0 26 41
- 1.6856 0 1 tcp 1040 ------- 0 0.0 2.0 26 41
r 1.68976 1 0 ack 40 ------- 0 2.0 0.0 13 28
+ 1.68976 0 1 tcp 1040 ------- 0 0.0 2.0 27 42
- 1.68976 0 1 tcp 1040 ------- 0 0.0 2.0 27 42
+ 1.68976 0 1 tcp 1040 ------- 0 0.0 2.0 28 43
- 1.69392 0 1 tcp 1040 ------- 0 0.0 2.0 28 43
r 1.69808 1 0 ack 40 ------- 0 2.0 0.0 14 29
+ 1.69808 0 1 tcp 1040 ------- 0 0.0 2.0 29 44
- 1.69808 0 1 tcp 1040 ------- 0 0.0 2.0 29 44
+ 1.69808 0 1 tcp 1040 ------- 0 0.0 2.0 30 45
- 1.70224 0 1 tcp 1040 ------- 0 0.0 2.0 30 45
r 1.744 0 1 tcp 1040 ------- 0 0.0 2.0 15 30
+ 1.744 1 2 tcp 1040 ------- 0 0.0 2.0 15 30
- 1.744 1 2 tcp 1040 ------- 0 0.0 2.0 15 30
r 1.74816 0 1 tcp 1040 ------- 0 0.0 2.0 16 31
+ 1.74816 1 2 tcp 1040 ------- 0 0.0 2.0 16 31
r 1.75232 0 1 tcp 1040 ------- 0 0.0 2.0 17 32
+ 1.75232 1 2 tcp 1040 ------- 0 0.0 2.0 17 32
- 1.75232 1 2 tcp 1040 ------- 0 0.0 2.0 16 31
r 1.75648 0 1 tcp 1040 ------- 0 0.0 2.0 18 33
+ 1.75648 1 2 tcp 1040 ------- 0 0.0 2.0 18 33
r 1.76064 0 1 tcp 1040 ------- 0 0.0 2.0 19 34
+ 1.76064 1 2 tcp 1040 ------- 0 0.0 2.0 19 34
- 1.76064 1 2 tcp 1040 ------- 0 0.0 2.0 17 32
r 1.7648 0 1 tcp 1040 ------- 0 0.0 2.0 20 35
+ 1.7648 1 2 tcp 1040 ------- 0 0.0 2.0 20 35
r 1.76896 0 1 tcp 1040 ------- 0 0.0 2.0 21 36
+ 1.76896 1 2 tcp 1040 ------- 0 0.0 2.0 21 36
- 1.76896 1 2 tcp 1040 ------- 0 0.0 2.0 18 33
r 1.77312 0 1 tcp 1040 ------- 0 0.0 2.0 22 37
+ 1.77312 1 2 tcp 1040 ------- 0 0.0 2.0 22 37
r 1.77728 0 1 tcp 1040 ------- 0 0.0 2.0 23 38
+ 1.77728 1 2 tcp 1040 ------- 0 0.0 2.0 23 38
- 1.77728 1 2 tcp 1040 ------- 0 0.0 2.0 19 34
r 1.78144 0 1 tcp 1040 ------- 0 0.0 2.0 24 39
+ 1.78144 1 2 tcp 1040 ------- 0 0.0 2.0 24 39
r 1.7856 0 1 tcp 1040 ------- 0 0.0 2.0 25 40
+ 1.7856 1 2 tcp 1040 ------- 0 0.0 2.0 25 40
- 1.7856 1 2 tcp 1040 ------- 0 0.0 2.0 20 35
r 1.78976 0 1 tcp 1040 ------- 0 0.0 2.0 26 41
+ 1.78976 1 2 tcp 1040 ------- 0 0.0 2.0 26 41
r 1.79392 0 1 tcp 1040 ------- 0 0.0 2.0 27 42
+ 1.79392 1 2 tcp 1040 ------- 0 0.0 2.0 27 42
- 1.79392 1 2 tcp 1040 ------- 0 0.0 2.0 21 36
r 1.79808 0 1 tcp 1040 ------- 0 0.0 2.0 28 43
+ 1.79808 1 2 tcp 1040 ------- 0 0.0 2.0 28 43
r 1.80224 0 1 tcp 1040 ------- 0 0.0 2.0 29 44
+ 1.80224 1 2 tcp 1040 ------- 0 0.0 2.0 29 44
- 1.80224 1 2 tcp 1040 ------- 0 0.0 2.0 22 37
r 1.8064 0 1 tcp 1040 ------- 0 0.0 2.0 30 45
+ 1.8064 1 2 tcp 1040 ------- 0 0.0 2.0 30 45
- 1.81056 1 2 tcp 1040 ------- 0 0.0 2.0 23 38
- 1.81888 1 2 tcp 1040 ------- 0 0.0 2.0 24 39
- 1.8272 1 2 tcp 1040 ------- 0 0.0 2.0 25 40
- 1.83552 1 2 tcp 1040 ------- 0 0.0 2.0 26 41
- 1.84384 1 2 tcp 1040 ------- 0 0.0 2.0 27 42
- 1.85216 1 2 tcp 1040 ------- 0 0.0 2.0 28 43
r 1.85232 1 2 tcp 1040 ------- 0 0.0 2.0 15 30
+ 1.85232 2 1 ack 40 ------- 0 2.0 0.0 15 46
- 1.85232 2 1 ack 40 ------- 0 2.0 0.0 15 46
- 1.86048 1 2 tcp 1040 ------- 0 0.0 2.0 29 44
r 1.86064 1 2 tcp 1040 ------- 0 0.0 2.0 16 31
+ 1.86064 2 1 ack 40 ------- 0 2.0 0.0 16 47
- 1.86064 2 1 ack 40 ------- 0 2.0 0.0 16 47
- 1.8688 1 2 tcp 1040 ------- 0 0.0 2.0 30 45
r 1.86896 1 2 tcp 1040 ------- 0 0.0 2.0 17 32
+ 1.86896 2 1 ack 40 ------- 0 2.0 0.0 17 48
- 1.86896 2 1 ack 40 ------- 0 2.0 0.0 17 48
r 1.87728 1 2 tcp 1040 ------- 0 0.0 2.0 18 33
+ 1.87728 2 1 ack 40 ------- 0 2.0 0.0 18 49
- 1.87728 2 1 ack 40 ------- 0 2.0 0.0 18 49
r 1.8856 1 2 tcp 1040 ------- 0 0.0 2.0 19 34
+ 1.8856 2 1 ack 40 ------- 0 2.0 0.0 19 50
- 1.8856 2 1 ack 40 ------- 0 2.0 0.0 19 50
r 1.89392 1 2 tcp 1040 ------- 0 0.0 2.0 20 35
+ 1.89392 2 1 ack 40 ------- 0 2.0 0.0 20 51
- 1.89392 2 1 ack 40 ------- 0 2.0 0.0 20 51
r 1.90224 1 2 tcp 1040 ------- 0 0.0 2.0 21 36
+ 1.90224 2 1 ack 40 ------- 0 2.0 0.0 21 52
- 1.90224 2 1 ack 40 ------- 0 2.0 0.0 21 52
r 1.91056 1 2 tcp 1040 ------- 0 0.0 2.0 22 37
+ 1.91056 2 1 ack 40 ------- 0 2.0 0.0 22 53
- 1.91056 2 1 ack 40 ------- 0 2.0 0.0 22 53
r 1.91888 1 2 tcp 1040 ------- 0 0.0 2.0 23 38
+ 1.91888 2 1 ack 40 ------- 0 2.0 0.0 23 54
- 1.91888 2 1 ack 40 ------- 0 2.0 0.0 23 54
r 1.9272 1 2 tcp 1040 ------- 0 0.0 2.0 24 39
+ 1.9272 2 1 ack 40 ------- 0 2.0 0.0 24 55
- 1.9272 2 1 ack 40 ------- 0 2.0 0.0 24 55
r 1.93552 1 2 tcp 1040 ------- 0 0.0 2.0 25 40
+ 1.93552 2 1 ack 40 ------- 0 2.0 0.0 25 56
- 1.93552 2 1 ack 40 ------- 0 2.0 0.0 25 56
r 1.94384 1 2 tcp 1040 ------- 0 0.0 2.0 26 41
+ 1.94384 2 1 ack 40 ------- 0 2.0 0.0 26 57
- 1.94384 2 1 ack 40 ------- 0 2.0 0.0 26 57
r 1.95216 1 2 tcp 1040 ------- 0 0.0 2.0 27 42
+ 1.95216 2 1 ack 40 ------- 0 2.0 0.0 27 58
- 1.95216 2 1 ack 40 ------- 0 2.0 0.0 27 58
r 1.95264 2 1 ack 40 ------- 0 2.0 0.0 15 46
+ 1.95264 1 0 ack 40 ------- 0 2.0 0.0 15 46
- 1.95264 1 0 ack 40 ------- 0 2.0 0.0 15 46
r 1.96048 1 2 tcp 1040 ------- 0 0.0 2.0 28 43
+ 1.96048 2 1 ack 40 ------- 0 2.0 0.0 28 59
- 1.96048 2 1 ack 40 ------- 0 2.0 0.0 28 59
r 1.96096 2 1 ack 40 ------- 0 2.0 0.0 16 47
+ 1.96096 1 0 ack 40 ------- 0 2.0 0.0 16 47
- 1.96096 1 0 ack 40 ------- 0 2.0 0.0 16 47
r 1.9688 1 2 tcp 1040 ------- 0 0.0 2.0 29 44
+ 1.9688 2 1 ack 40 ------- 0 2.0 0.0 29 60
- 1.9688 2 1 ack 40 ------- 0 2.0 0.0 29 60
r 1.96928 2 1 ack 40 ------- 0 2.0 0.0 17 48
+ 1.96928 1 0 ack 40 ------- 0 2.0 0.0 17 48
- 1.96928 1 0 ack 40 ------- 0 2.0 0.0 17 48
r 1.97712 1 2 tcp 1040 ------- 0 0.0 2.0 30 45
+ 1.97712 2 1 ack 40 ------- 0 2.0 0.0 30 61
- 1.97712 2 1 ack 40 ------- 0 2.0 0.0 30 61
r 1.9776 2 1 ack 40 ------- 0 2.0 0.0 18 49
+ 1.9776 1 0 ack 40 ------- 0 2.0 0.0 18 49
- 1.9776 1 0 ack 40 ------- 0 2.0 0.0 18 49
r 1.98592 2 1 ack 40 ------- 0 2.0 0.0 19 50
+ 1.98592 1 0 ack 40 ------- 0 2.0 0.0 19 50
- 1.98592 1 0 ack 40 ------- 0 2.0 0.0 19 50
r 1.99424 2 1 ack 40 ------- 0 2.0 0.0 20 51
+ 1.99424 1 0 ack 40 ------- 0 2.0 0.0 20 51
- 1.99424 1 0 ack 40 ------- 0 2.0 0.0 20 51
r 2.00256 2 1 ack 40 ------- 0 2.0 0.0 21 52
+ 2.00256 1 0 ack 40 ------- 0 2.0 0.0 21 52
- 2.00256 1 0 ack 40 ------- 0 2.0 0.0 21 52
r 2.01088 2 1 ack 40 ------- 0 2.0 0.0 22 53
+ 2.01088 1 0 ack 40 ------- 0 2.0 0.0 22 53
- 2.01088 1 0 ack 40 ------- 0 2.0 0.0 22 53
r 2.0192 2 1 ack 40 ------- 0 2.0 0.0 23 54
+ 2.0192 1 0 ack 40 ------- 0 2.0 0.0 23 54
- 2.0192 1 0 ack 40 ------- 0 2.0 0.0 23 54
r 2.02752 2 1 ack 40 ------- 0 2.0 0.0 24 55
+ 2.02752 1 0 ack 40 ------- 0 2.0 0.0 24 55
- 2.02752 1 0 ack 40 ------- 0 2.0 0.0 24 55
r 2.03584 2 1 ack 40 ------- 0 2.0 0.0 25 56
+ 2.03584 1 0 ack 40 ------- 0 2.0 0.0 25 56
- 2.03584 1 0 ack 40 ------- 0 2.0 0.0 25 56
r 2.04416 2 1 ack 40 ------- 0 2.0 0.0 26 57
+ 2.04416 1 0 ack 40 ------- 0 2.0 0.0 26 57
- 2.04416 1 0 ack 40 ------- 0 2.0 0.0 26 57
r 2.05248 2 1 ack 40 ------- 0 2.0 0.0 27 58
+ 2.05248 1 0 ack 40 ------- 0 2.0 0.0 27 58
- 2.05248 1 0 ack 40 ------- 0 2.0 0.0 27 58
r 2.0528 1 0 ack 40 ------- 0 2.0 0.0 15 46
+ 2.0528 0 1 tcp 1040 ------- 0 0.0 2.0 31 62
- 2.0528 0 1 tcp 1040 ------- 0 0.0 2.0 31 62
+ 2.0528 0 1 tcp 1040 ------- 0 0.0 2.0 32 63
- 2.05696 0 1 tcp 1040 ------- 0 0.0 2.0 32 63
r 2.0608 2 1 ack 40 ------- 0 2.0 0.0 28 59
+ 2.0608 1 0 ack 40 ------- 0 2.0 0.0 28 59
- 2.0608 1 0 ack 40 ------- 0 2.0 0.0 28 59
r 2.06112 1 0 ack 40 ------- 0 2.0 0.0 16 47
+ 2.06112 0 1 tcp 1040 ------- 0 0.0 2.0 33 64
+ 2.06112 0 1 tcp 1040 ------- 0 0.0 2.0 34 65
- 2.06112 0 1 tcp 1040 ------- 0 0.0 2.0 33 64
- 2.06528 0 1 tcp 1040 ------- 0 0.0 2.0 34 65
r 2.06912 2 1 ack 40 ------- 0 2.0 0.0 29 60
+ 2.06912 1 0 ack 40 ------- 0 2.0 0.0 29 60
- 2.06912 1 0 ack 40 ------- 0 2.0 0.0 29 60
r 2.06944 1 0 ack 40 ------- 0 2.0 0.0 17 48
+ 2.06944 0 1 tcp 1040 ------- 0 0.0 2.0 35 66
+ 2.06944 0 1 tcp 1040 ------- 0 0.0 2.0 36 67
- 2.06944 0 1 tcp 1040 ------- 0 0.0 2.0 35 66
- 2.0736 0 1 tcp 1040 ------- 0 0.0 2.0 36 67
r 2.07744 2 1 ack 40 ------- 0 2.0 0.0 30 61
+ 2.07744 1 0 ack 40 ------- 0 2.0 0.0 30 61
- 2.07744 1 0 ack 40 ------- 0 2.0 0.0 30 61
r 2.07776 1 0 ack 40 ------- 0 2.0 0.0 18 49
+ 2.07776 0 1 tcp 1040 ------- 0 0.0 2.0 37 68
+ 2.07776 0 1 tcp 1040 ------- 0 0.0 2.0 38 69
- 2.07776 0 1 tcp 1040 ------- 0 0.0 2.0 37 68
- 2.08192 0 1 tcp 1040 ------- 0 0.0 2.0 38 69
r 2.08608 1 0 ack 40 ------- 0 2.0 0.0 19 50
+ 2.08608 0 1 tcp 1040 ------- 0 0.0 2.0 39 70
- 2.08608 0 1 tcp 1040 ------- 0 0.0 2.0 39 70
r 2.0944 1 0 ack 40 ------- 0 2.0 0.0 20 51
+ 2.0944 0 1 tcp 1040 ------- 0 0.0 2.0 40 71
- 2.0944 0 1 tcp 1040 ------- 0 0.0 2.0 40 71
r 2.10272 1 0 ack 40 ------- 0 2.0 0.0 21 52
+ 2.10272 0 1 tcp 1040 ------- 0 0.0 2.0 41 72
- 2.10272 0 1 tcp 1040 ------- 0 0.0 2.0 41 72
r 2.11104 1 0 ack 40 ------- 0 2.0 0.0 22 53
+ 2.11104 0 1 tcp 1040 ------- 0 0.0 2.0 42 73
- 2.11104 0 1 tcp 1040 ------- 0 0.0 2.0 42 73
r 2.11936 1 0 ack 40 ------- 0 2.0 0.0 23 54
+ 2.11936 0 1 tcp 1040 ------- 0 0.0 2.0 43 74
- 2.11936 0 1 tcp 1040 ------- 0 0.0 2.0 43 74
r 2.12768 1 0 ack 40 ------- 0 2.0 0.0 24 55
+ 2.12768 0 1 tcp 1040 ------- 0 0.0 2.0 44 75
- 2.12768 0 1 tcp 1040 ------- 0 0.0 2.0 44 75
r 2.136 1 0 ack 40 ------- 0 2.0 0.0 25 56
+ 2.136 0 1 tcp 1040 ------- 0 0.0 2.0 45 76
- 2.136 0 1 tcp 1040 ------- 0 0.0 2.0 45 76
r 2.14432 1 0 ack 40 ------- 0 2.0 0.0 26 57
+ 2.14432 0 1 tcp 1040 ------- 0 0.0 2.0 46 77
- 2.14432 0 1 tcp 1040 ------- 0 0.0 2.0 46 77
r 2.15264 1 0 ack 40 ------- 0 2.0 0.0 27 58
+ 2.15264 0 1 tcp 1040 ------- 0 0.0 2.0 47 78
- 2.15264 0 1 tcp 1040 ------- 0 0.0 2.0 47 78
r 2.15696 0 1 tcp 1040 ------- 0 0.0 2.0 31 62
+ 2.15696 1 2 tcp 1040 ------- 0 0.0 2.0 31 62
- 2.15696 1 2 tcp 1040 ------- 0 0.0 2.0 31 62
r 2.16096 1 0 ack 40 ------- 0 2.0 0.0 28 59
+ 2.16096 0 1 tcp 1040 ------- 0 0.0 2.0 48 79
- 2.16096 0 1 tcp 1040 ------- 0 0.0 2.0 48 79
r 2.16112 0 1 tcp 1040 ------- 0 0.0 2.0 32 63
+ 2.16112 1 2 tcp 1040 ------- 0 0.0 2.0 32 63
- 2.16528 1 2 tcp 1040 ------- 0 0.0 2.0 32 63
r 2.16528 0 1 tcp 1040 ------- 0 0.0 2.0 33 64
+ 2.16528 1 2 tcp 1040 ------- 0 0.0 2.0 33 64
r 2.16928 1 0 ack 40 ------- 0 2.0 0.0 29 60
+ 2.16928 0 1 tcp 1040 ------- 0 0.0 2.0 49 80
- 2.16928 0 1 tcp 1040 ------- 0 0.0 2.0 49 80
r 2.16944 0 1 tcp 1040 ------- 0 0.0 2.0 34 65
+ 2.16944 1 2 tcp 1040 ------- 0 0.0 2.0 34 65
- 2.1736 1 2 tcp 1040 ------- 0 0.0 2.0 33 64
r 2.1736 0 1 tcp 1040 ------- 0 0.0 2.0 35 66
+ 2.1736 1 2 tcp 1040 ------- 0 0.0 2.0 35 66
r 2.1776 1 0 ack 40 ------- 0 2.0 0.0 30 61
+ 2.1776 0 1 tcp 1040 ------- 0 0.0 2.0 50 81
- 2.1776 0 1 tcp 1040 ------- 0 0.0 2.0 50 81
r 2.17776 0 1 tcp 1040 ------- 0 0.0 2.0 36 67
+ 2.17776 1 2 tcp 1040 ------- 0 0.0 2.0 36 67
- 2.18192 1 2 tcp 1040 ------- 0 0.0 2.0 34 65
r 2.18192 0 1 tcp 1040 ------- 0 0.0 2.0 37 68
+ 2.18192 1 2 tcp 1040 ------- 0 0.0 2.0 37 68
r 2.18608 0 1 tcp 1040 ------- 0 0.0 2.0 38 69
+ 2.18608 1 2 tcp 1040 ------- 0 0.0 2.0 38 69
- 2.19024 1 2 tcp 1040 ------- 0 0.0 2.0 35 66
r 2.19024 0 1 tcp 1040 ------- 0 0.0 2.0 39 70
+ 2.19024 1 2 tcp 1040 ------- 0 0.0 2.0 39 70
- 2.19856 1 2 tcp 1040 ------- 0 0.0 2.0 36 67
r 2.19856 0 1 tcp 1040 ------- 0 0.0 2.0 40 71
+ 2.19856 1 2 tcp 1040 ------- 0 0.0 2.0 40 71
- 2.20688 1 2 tcp 1040 ------- 0 0.0 2.0 37 68
r 2.20688 0 1 tcp 1040 ------- 0 0.0 2.0 41 72
+ 2.20688 1 2 tcp 1040 ------- 0 0.0 2.0 41 72
- 2.2152 1 2 tcp 1040 ------- 0 0.0 2.0 38 69
r 2.2152 0 1 tcp 1040 ------- 0 0.0 2.0 42 73
+ 2.2152 1 2 tcp 1040 ------- 0 0.0 2.0 42 73
- 2.22352 1 2 tcp 1040 ------- 0 0.0 2.0 39 70
r 2.22352 0 1 tcp 1040 ------- 0 0.0 2.0 43 74
+ 2.22352 1 2 tcp 1040 ------- 0 0.0 2.0 43 74
- 2.23184 1 2 tcp 1040 ------- 0 0.0 2.0 40 71
r 2.23184 0 1 tcp 1040 ------- 0 0.0 2.0 44 75
+ 2.23184 1 2 tcp 1040 ------- 0 0.0 2.0 44 75
- 2.24016 1 2 tcp 1040 ------- 0 0.0 2.0 41 72
r 2.24016 0 1 tcp 1040 ------- 0 0.0 2.0 45 76
+ 2.24016 1 2 tcp 1040 ------- 0 0.0 2.0 45 76
- 2.24848 1 2 tcp 1040 ------- 0 0.0 2.0 42 73
r 2.24848 0 1 tcp 1040 ------- 0 0.0 2.0 46 77
+ 2.24848 1 2 tcp 1040 ------- 0 0.0 2.0 46 77
- 2.2568 1 2 tcp 1040 ------- 0 0.0 2.0 43 74
r 2.2568 0 1 tcp 1040 ------- 0 0.0 2.0 47 78
+ 2.2568 1 2 tcp 1040 ------- 0 0.0 2.0 47 78
- 2.26512 1 2 tcp 1040 ------- 0 0.0 2.0 44 75
r 2.26512 0 1 tcp 1040 ------- 0 0.0 2.0 48 79
+ 2.26512 1 2 tcp 1040 ------- 0 0.0 2.0 48 79
r 2.26528 1 2 tcp 1040 ------- 0 0.0 2.0 31 62
+ 2.26528 2 1 ack 40 ------- 0 2.0 0.0 31 82
- 2.26528 2 1 ack 40 ------- 0 2.0 0.0 31 82
- 2.27344 1 2 tcp 1040 ------- 0 0.0 2.0 45 76
r 2.27344 0 1 tcp 1040 ------- 0 0.0 2.0 49 80
+ 2.27344 1 2 tcp 1040 ------- 0 0.0 2.0 49 80
r 2.2736 1 2 tcp 1040 ------- 0 0.0 2.0 32 63
+ 2.2736 2 1 ack 40 ------- 0 2.0 0.0 32 83
- 2.2736 2 1 ack 40 ------- 0 2.0 0.0 32 83
- 2.28176 1 2 tcp 1040 ------- 0 0.0 2.0 46 77
r 2.28176 0 1 tcp 1040 ------- 0 0.0 2.0 50 81
+ 2.28176 1 2 tcp 1040 ------- 0 0.0 2.0 50 81
r 2.28192 1 2 tcp 1040 ------- 0 0.0 2.0 33 64
+ 2.28192 2 1 ack 40 ------- 0 2.0 0.0 33 84
- 2.28192 2 1 ack 40 ------- 0 2.0 0.0 33 84
- 2.29008 1 2 tcp 1040 ------- 0 0.0 2.0 47 78
r 2.29024 1 2 tcp 1040 ------- 0 0.0 2.0 34 65
+ 2.29024 2 1 ack 40 ------- 0 2.0 0.0 34 85
- 2.29024 2 1 ack 40 ------- 0 2.0 0.0 34 85
- 2.2984 1 2 tcp 1040 ------- 0 0.0 2.0 48 79
r 2.29856 1 2 tcp 1040 ------- 0 0.0 2.0 35 66
+ 2.29856 2 1 ack 40 ------- 0 2.0 0.0 35 86
- 2.29856 2 1 ack 40 ------- 0 2.0 0.0 35 86
- 2.30672 1 2 tcp 1040 ------- 0 0.0 2.0 49 80
r 2.30688 1 2 tcp 1040 ------- 0 0.0 2.0 36 67
+ 2.30688 2 1 ack 40 ------- 0 2.0 0.0 36 87
- 2.30688 2 1 ack 40 ------- 0 2.0 0.0 36 87
- 2.31504 1 2 tcp 1040 ------- 0 0.0 2.0 50 81
r 2.3152 1 2 tcp 1040 ------- 0 0.0 2.0 37 68
+ 2.3152 2 1 ack 40 ------- 0 2.0 0.0 37 88
- 2.3152 2 1 ack 40 ------- 0 2.0 0.0 37 88
r 2.32352 1 2 tcp 1040 ------- 0 0.0 2.0 38 69
+ 2.32352 2 1 ack 40 ------- 0 2.0 0.0 38 89
- 2.32352 2 1 ack 40 ------- 0 2.0 0.0 38 89
r 2.33184 1 2 tcp 1040 ------- 0 0.0 2.0 39 70
+ 2.33184 2 1 ack 40 ------- 0 2.0 0.0 39 90
- 2.33184 2 1 ack 40 ------- 0 2.0 0.0 39 90
r 2.34016 1 2 tcp 1040 ------- 0 0.0 2.0 40 71
+ 2.34016 2 1 ack 40 ------- 0 2.0 0.0 40 91
- 2.34016 2 1 ack 40 ------- 0 2.0 0.0 40 91
r 2.34848 1 2 tcp 1040 ------- 0 0.0 2.0 41 72
+ 2.34848 2 1 ack 40 ------- 0 2.0 0.0 41 92
- 2.34848 2 1 ack 40 ------- 0 2.0 0.0 41 92
r 2.3568 1 2 tcp 1040 ------- 0 0.0 2.0 42 73
+ 2.3568 2 1 ack 40 ------- 0 2.0 0.0 42 93
- 2.3568 2 1 ack 40 ------- 0 2.0 0.0 42 93
r 2.36512 1 2 tcp 1040 ------- 0 0.0 2.0 43 74
+ 2.36512 2 1 ack 40 ------- 0 2.0 0.0 43 94
- 2.36512 2 1 ack 40 ------- 0 2.0 0.0 43 94
r 2.3656 2 1 ack 40 ------- 0 2.0 0.0 31 82
+ 2.3656 1 0 ack 40 ------- 0 2.0 0.0 31 82
- 2.3656 1 0 ack 40 ------- 0 2.0 0.0 31 82
r 2.37344 1 2 tcp 1040 ------- 0 0.0 2.0 44 75
+ 2.37344 2 1 ack 40 ------- 0 2.0 0.0 44 95
- 2.37344 2 1 ack 40 ------- 0 2.0 0.0 44 95
r 2.37392 2 1 ack 40 ------- 0 2.0 0.0 32 83
+ 2.37392 1 0 ack 40 ------- 0 2.0 0.0 32 83
- 2.37392 1 0 ack 40 ------- 0 2.0 0.0 32 83
r 2.38176 1 2 tcp 1040 ------- 0 0.0 2.0 45 76
+ 2.38176 2 1 ack 40 ------- 0 2.0 0.0 45 96
- 2.38176 2 1 ack 40 ------- 0 2.0 0.0 45 96
r 2.38224 2 1 ack 40 ------- 0 2.0 0.0 33 84
+ 2.38224 1 0 ack 40 ------- 0 2.0 0.0 33 84
- 2.38224 1 0 ack 40 ------- 0 2.0 0.0 33 84
r 2.39008 1 2 tcp 1040 ------- 0 0.0 2.0 46 77
+ 2.39008 2 1 ack 40 ------- 0 2.0 0.0 46 97
- 2.39008 2 1 ack 40 ------- 0 2.0 0.0 46 97
r 2.39056 2 1 ack 40 ------- 0 2.0 0.0 34 85
+ 2.39056 1 0 ack 40 ------- 0 2.0 0.0 34 85
- 2.39056 1 0 ack 40 ------- 0 2.0 0.0 34 85
r 2.3984 1 2 tcp 1040 ------- 0 0.0 2.0 47 78
+ 2.3984 2 1 ack 40 ------- 0 2.0 0.0 47 98
- 2.3984 2 1 ack 40 ------- 0 2.0 0.0 47 98
r 2.39888 2 1 ack 40 ------- 0 2.0 0.0 35 86
+ 2.39888 1 0 ack 40 ------- 0 2.0 0.0 35 86
- 2.39888 1 0 ack 40 ------- 0 2.0 0.0 35 86
r 2.40672 1 2 tcp 1040 ------- 0 0.0 2.0 48 79
+ 2.40672 2 1 ack 40 ------- 0 2.0 0.0 48 99
- 2.40672 2 1 ack 40 ------- 0 2.0 0.0 48 99
r 2.4072 2 1 ack 40 ------- 0 2.0 0.0 36 87
+ 2.4072 1 0 ack 40 ------- 0 2.0 0.0 36 87
- 2.4072 1 0 ack 40 ------- 0 2.0 0.0 36 87
r 2.41504 1 2 tcp 1040 ------- 0 0.0 2.0 49 80
+ 2.41504 2 1 ack 40 ------- 0 2.0 0.0 49 100
- 2.41504 2 1 ack 40 ------- 0 2.0 0.0 49 100
r 2.41552 2 1 ack 40 ------- 0 2.0 0.0 37 88
+ 2.41552 1 0 ack 40 ------- 0 2.0 0.0 37 88
- 2.41552 1 0 ack 40 ------- 0 2.0 0.0 37 88
r 2.42336 1 2 tcp 1040 ------- 0 0.0 2.0 50 81
+ 2.42336 2 1 ack 40 ------- 0 2.0 0.0 50 101
- 2.42336 2 1 ack 40 ------- 0 2.0 0.0 50 101
r 2.42384 2 1 ack 40 ------- 0 2.0 0.0 38 89
+ 2.42384 1 0 ack 40 ------- 0 2.0 0.0 38 89
- 2.42384 1 0 ack 40 ------- 0 2.0 0.0 38 89
r 2.43216 2 1 ack 40 ------- 0 2.0 0.0 39 90
+ 2.43216 1 0 ack 40 ------- 0 2.0 0.0 39 90
- 2.43216 1 0 ack 40 ------- 0 2.0 0.0 39 90
r 2.44048 2 1 ack 40 ------- 0 2.0 0.0 40 91
+ 2.44048 1 0 ack 40 ------- 0 2.0 0.0 40 91
- 2.44048 1 0 ack 40 ------- 0 2.0 0.0 40 91
r 2.4488 2 1 ack 40 ------- 0 2.0 0.0 41 92
+ 2.4488 1 0 ack 40 ------- 0 2.0 0.0 41 92
- 2.4488 1 0 ack 40 ------- 0 2.0 0.0 41 92
r 2.45712 2 1 ack 40 ------- 0 2.0 0.0 42 93
+ 2.45712 1 0 ack 40 ------- 0 2.0 0.0 42 93
- 2.45712 1 0 ack 40 ------- 0 2.0 0.0 42 93
r 2.46544 2 1 ack 40 ------- 0 2.0 0.0 43 94
+ 2.46544 1 0 ack 40 ------- 0 2.0 0.0 43 94
- 2.46544 1 0 ack 40 ------- 0 2.0 0.0 43 94
r 2.46576 1 0 ack 40 ------- 0 2.0 0.0 31 82
+ 2.46576 0 1 tcp 1040 ------- 0 0.0 2.0 51 102
- 2.46576 0 1 tcp 1040 ------- 0 0.0 2.0 51 102
r 2.47376 2 1 ack 40 ------- 0 2.0 0.0 44 95
+ 2.47376 1 0 ack 40 ------- 0 2.0 0.0 44 95
- 2.47376 1 0 ack 40 ------- 0 2.0 0.0 44 95
r 2.47408 1 0 ack 40 ------- 0 2.0 0.0 32 83
+ 2.47408 0 1 tcp 1040 ------- 0 0.0 2.0 52 103
- 2.47408 0 1 tcp 1040 ------- 0 0.0 2.0 52 103
r 2.48208 2 1 ack 40 ------- 0 2.0 0.0 45 96
+ 2.48208 1 0 ack 40 ------- 0 2.0 0.0 45 96
- 2.48208 1 0 ack 40 ------- 0 2.0 0.0 45 96
r 2.4824 1 0 ack 40 ------- 0 2.0 0.0 33 84
+ 2.4824 0 1 tcp 1040 ------- 0 0.0 2.0 53 104
- 2.4824 0 1 tcp 1040 ------- 0 0.0 2.0 53 104
r 2.4904 2 1 ack 40 ------- 0 2.0 0.0 46 97
+ 2.4904 1 0 ack 40 ------- 0 2.0 0.0 46 97
- 2.4904 1 0 ack 40 ------- 0 2.0 0.0 46 97
r 2.49072 1 0 ack 40 ------- 0 2.0 0.0 34 85
+ 2.49072 0 1 tcp 1040 ------- 0 0.0 2.0 54 105
- 2.49072 0 1 tcp 1040 ------- 0 0.0 2.0 54 105
r 2.49872 2 1 ack 40 ------- 0 2.0 0.0 47 98
+ 2.49872 1 0 ack 40 ------- 0 2.0 0.0 47 98
- 2.49872 1 0 ack 40 ------- 0 2.0 0.0 47 98
r 2.49904 1 0 ack 40 ------- 0 2.0 0.0 35 86
+ 2.49904 0 1 tcp 1040 ------- 0 0.0 2.0 55 106
- 2.49904 0 1 tcp 1040 ------- 0 0.0 2.0 55 106
r 2.50704 2 1 ack 40 ------- 0 2.0 0.0 48 99
+ 2.50704 1 0 ack 40 ------- 0 2.0 0.0 48 99
- 2.50704 1 0 ack 40 ------- 0 2.0 0.0 48 99
r 2.50736 1 0 ack 40 ------- 0 2.0 0.0 36 87
+ 2.50736 0 1 tcp 1040 ------- 0 0.0 2.0 56 107
- 2.50736 0 1 tcp 1040 ------- 0 0.0 2.0 56 107
r 2.51536 2 1 ack 40 ------- 0 2.0 0.0 49 100
+ 2.51536 1 0 ack 40 ------- 0 2.0 0.0 49 100
- 2.51536 1 0 ack 40 ------- 0 2.0 0.0 49 100
r 2.51568 1 0 ack 40 ------- 0 2.0 0.0 37 88
+ 2.51568 0 1 tcp 1040 ------- 0 0.0 2.0 57 108
- 2.51568 0 1 tcp 1040 ------- 0 0.0 2.0 57 108
r 2.52368 2 1 ack 40 ------- 0 2.0 0.0 50 101
+ 2.52368 1 0 ack 40 ------- 0 2.0 0.0 50 101
- 2.52368 1 0 ack 40 ------- 0 2.0 0.0 50 101
r 2.524 1 0 ack 40 ------- 0 2.0 0.0 38 89
+ 2.524 0 1 tcp 1040 ------- 0 0.0 2.0 58 109
- 2.524 0 1 tcp 1040 ------- 0 0.0 2.0 58 109
r 2.53232 1 0 ack 40 ------- 0 2.0 0.0 39 90
+ 2.53232 0 1 tcp 1040 ------- 0 0.0 2.0 59 110
- 2.53232 0 1 tcp 1040 ------- 0 0.0 2.0 59 110
r 2.54064 1 0 ack 40 ------- 0 2.0 0.0 40 91
+ 2.54064 0 1 tcp 1040 ------- 0 0.0 2.0 60 111
- 2.54064 0 1 tcp 1040 ------- 0 0.0 2.0 60 111
r 2.54896 1 0 ack 40 ------- 0 2.0 0.0 41 92
+ 2.54896 0 1 tcp 1040 ------- 0 0.0 2.0 61 112
- 2.54896 0 1 tcp 1040 ------- 0 0.0 2.0 61 112
r 2.55728 1 0 ack 40 ------- 0 2.0 0.0 42 93
+ 2.55728 0 1 tcp 1040 ------- 0 0.0 2.0 62 113
- 2.55728 0 1 tcp 1040 ------- 0 0.0 2.0 62 113
r 2.5656 1 0 ack 40 ------- 0 2.0 0.0 43 94
+ 2.5656 0 1 tcp 1040 ------- 0 0.0 2.0 63 114
- 2.5656 0 1 tcp 1040 ------- 0 0.0 2.0 63 114
r 2.56992 0 1 tcp 1040 ------- 0 0.0 2.0 51 102
+ 2.56992 1 2 tcp 1040 ------- 0 0.0 2.0 51 102
- 2.56992 1 2 tcp 1040 ------- 0 0.0 2.0 51 102
r 2.57392 1 0 ack 40 ------- 0 2.0 0.0 44 95
+ 2.57392 0 1 tcp 1040 ------- 0 0.0 2.0 64 115
- 2.57392 0 1 tcp 1040 ------- 0 0.0 2.0 64 115
r 2.57824 0 1 tcp 1040 ------- 0 0.0 2.0 52 103
+ 2.57824 1 2 tcp 1040 ------- 0 0.0 2.0 52 103
- 2.57824 1 2 tcp 1040 ------- 0 0.0 2.0 52 103
r 2.58224 1 0 ack 40 ------- 0 2.0 0.0 45 96
+ 2.58224 0 1 tcp 1040 ------- 0 0.0 2.0 65 116
- 2.58224 0 1 tcp 1040 ------- 0 0.0 2.0 65 116
r 2.58656 0 1 tcp 1040 ------- 0 0.0 2.0 53 104
+ 2.58656 1 2 tcp 1040 ------- 0 0.0 2.0 53 104
- 2.58656 1 2 tcp 1040 ------- 0 0.0 2.0 53 104
r 2.59056 1 0 ack 40 ------- 0 2.0 0.0 46 97
+ 2.59056 0 1 tcp 1040 ------- 0 0.0 2.0 66 117
- 2.59056 0 1 tcp 1040 ------- 0 0.0 2.0 66 117
r 2.59488 0 1 tcp 1040 ------- 0 0.0 2.0 54 105
+ 2.59488 1 2 tcp 1040 ------- 0 0.0 2.0 54 105
- 2.59488 1 2 tcp 1040 ------- 0 0.0 2.0 54 105
r 2.59888 1 0 ack 40 ------- 0 2.0 0.0 47 98
+ 2.59888 0 1 tcp 1040 ------- 0 0.0 2.0 67 118
- 2.59888 0 1 tcp 1040 ------- 0 0.0 2.0 67 118
r 2.6032 0 1 tcp 1040 ------- 0 0.0 2.0 55 106
+ 2.6032 1 2 tcp 1040 ------- 0 0.0 2.0 55 106