V -t * -v 1.0a5 -a 0
A -t * -n 1 -p 0 -o 0x7fffffff -c 30 -a 1
A -t * -h 1 -m 1073741823 -s 0
n -t * -a 0 -s 0 -S UP -v circle -c black -i black
n -t * -a 1 -s 1 -S UP -v circle -c black -i black
n -t * -a 2 -s 2 -S UP -v circle -c black -i black
l -t * -s 0 -d 1 -S UP -r 2000000 -D 0.10000000000000001 -c black
l -t * -s 1 -d 2 -S UP -r 1000000 -D 0.10000000000000001 -c black
+ -t 0 -s 0 -d 1 -p tcp -e 40 -c 0 -i 0 -a 0 -x {0.0 2.0 0 ------- null}
- -t 0 -s 0 -d 1 -p tcp -e 40 -c 0 -i 0 -a 0 -x {0.0 2.0 0 ------- null}
h -t 0 -s 0 -d 1 -p tcp -e 40 -c 0 -i 0 -a 0 -x {0.0 2.0 -1 ------- null}
r -t 0.10016 -s 0 -d 1 -p tcp -e 40 -c 0 -i 0 -a 0 -x {0.0 2.0 0 ------- null}
+ -t 0.10016 -s 1 -d 2 -p tcp -e 40 -c 0 -i 0 -a 0 -x {0.0 2.0 0 ------- null}
- -t 0.10016 -s 1 -d 2 -p tcp -e 40 -c 0 -i 0 -a 0 -x {0.0 2.0 0 ------- null}
h -t 0.10016 -s 1 -d 2 -p tcp -e 40 -c 0 -i 0 -a 0 -x {0.0 2.0 -1 ------- null}
r -t 0.20048 -s 1 -d 2 -p tcp -e 40 -c 0 -i 0 -a 0 -x {0.0 2.0 0 ------- null}
+ -t 0.20048 -s 2 -d 1 -p ack -e 40 -c 0 -i 1 -a 0 -x {2.0 0.0 0 ------- null}
- -t 0.20048 -s 2 -d 1 -p ack -e 40 -c 0 -i 1 -a 0 -x {2.0 0.0 0 ------- null}
h -t 0.20048 -s 2 -d 1 -p ack -e 40 -c 0 -i 1 -a 0 -x {2.0 0.0 -1 ------- null}
r -t 0.3008 -s 2 -d 1 -p ack -e 40 -c 0 -i 1 -a 0 -x {2.0 0.0 0 ------- null}
+ -t 0.3008 -s 1 -d 0 -p ack -e 40 -c 0 -i 1 -a 0 -x {2.0 0.0 0 ------- null}
- -t 0.3008 -s 1 -d 0 -p ack -e 40 -c 0 -i 1 -a 0 -x {2.0 0.0 0 ------- null}
h -t 0.3008 -s 1 -d 0 -p ack -e 40 -c 0 -i 1 -a 0 -x {2.0 0.0 -1 ------- null}
r -t 0.40096 -s 1 -d 0 -p ack -e 40 -c 0 -i 1 -a 0 -x {2.0 0.0 0 ------- null}
+ -t 0.40096 -s 0 -d 1 -p tcp -e 1040 -c 0 -i 2 -a 0 -x {0.0 2.0 1 ------- null}
- -t 0.40096 -s 0 -d 1 -p tcp -e 1040 -c 0 -i 2 -a 0 -x {0.0 2.0 1 ------- null}
h -t 0.40096 -s 0 -d 1 -p tcp -e 1040 -c 0 -i 2 -a 0 -x {0.0 2.0 -1 ------- null}
+ -t 0.40096 -s 0 -d 1 -p tcp -e 1040 -c 0 -i 3 -a 0 -x {0.0 2.0 2 ------- null}
- -t 0.40512 -s 0 -d 1 -p tcp -e 1040 -c 0 -i 3 -a 0 -x {0.0 2.0 2 ------- null}
h -t 0.40512 -s 0 -d 1 -p tcp -e 1040 -c 0 -i 3 -a 0 -x {0.0 2.0 -1 ------- null}
r -t 0.50512 -s 0 -d 1 -p tcp -e 1040 -c 0 -i 2 -a 0 -x {0.0 2.0 1 ------- null}
+ -t 0.50512 -s 1 -d 2 -p tcp -e 1040 -c 0 -i 2 -a 0 -x {0.0 2.0 1 ------- null}
- -t 0.50512 -s 1 -d 2 -p tcp -e 1040 -c 0 -i 2 -a 0 -x {0.0 2.0 1 ------- null}
h -t 0.50512 -s 1 -d 2 -p tcp -e 1040 -c 0 -i 2 -a 0 -x {0.0 2.0 -1 ------- null}
r -t 0.50928 -s 0 -d 1 -p tcp -e 1040 -c 0 -i 3 -a 0 -x {0.0 2.0 2 ------- null}
+ -t 0.50928 -s 1 -d 2 -p tcp -e 1040 -c 0 -i 3 -a 0 -x {0.0 2.0 2 ------- null}
- -t 0.51344 -s 1 -d 2 -p tcp -e 1040 -c 0 -i 3 -a 0 -x {0.0 2.0 2 ------- null}
h -t 0.51344 -s 1 -d 2 -p tcp -e 1040 -c 0 -i 3 -a 0 -x {0.0 2.0 -1 ------- null}
r -t 0.61344 -s 1 -d 2 -p tcp -e 1040 -c 0 -i 2 -a 0 -x {0.0 2.0 1 ------- null}
+ -t 0.61344 -s 2 -d 1 -p ack -e 40 -c 0 -i 4 -a 0 -x {2.0 0.0 1 ------- null}
- -t 0.61344 -s 2 -d 1 -p ack -e 40 -c 0 -i 4 -a 0 -x {2.0 0.0 1 ------- null}
h -t 0.61344 -s 2 -d 1 -p ack -e 40 -c 0 -i 4 -a 0 -x {2.0 0.0 -1 ------- null}
r -t 0.62176 -s 1 -d 2 -p tcp -e 1040 -c 0 -i 3 -a 0 -x {0.0 2.0 2 ------- null}
+ -t 0.62176 -s 2 -d 1 -p ack -e 40 -c 0 -i 5 -a 0 -x {2.0 0.0 2 ------- null}
- -t 0.62176 -s 2 -d 1 -p ack -e 40 -c 0 -i 5 -a 0 -x {2.0 0.0 2 ------- null}
h -t 0.62176 -s 2 -d 1 -p ack -e 40 -c 0 -i 5 -a 0 -x {2.0 0.0 -1 ------- null}
r -t 0.71376 -s 2 -d 1 -p ack -e 40 -c 0 -i 4 -a 0 -x {2.0 0.0 1 ------- null}
+ -t 0.71376 -s 1 -d 0 -p ack -e 40 -c 0 -i 4 -a 0 -x {2.0 0.0 1 ------- null}
- -t 0.71376 -s 1 -d 0 -p ack -e 40 -c 0 -i 4 -a 0 -x {2.0 0.0 1 ------- null}
h -t 0.71376 -s 1 -d 0 -p ack -e 40 -c 0 -i 4 -a 0 -x {2.0 0.0 -1 ------- null}
r -t 0.72208 -s 2 -d 1 -p ack -e 40 -c 0 -i 5 -a 0 -x {2.0 0.0 2 ------- null}
+ -t 0.72208 -s 1 -d 0 -p ack -e 40 -c 0 -i 5 -a 0 -x {2.0 0.0 2 ------- null}
- -t 0.72208 -s 1 -d 0 -p ack -e 40 -c 0 -i 5 -a 0 -x {2.0 0.0 2 ------- null}
h -t 0.72208 -s 1 -d 0 -p ack -e 40 -c 0 -i 5 -a 0 -x {2.0 0.0 -1 ------- null}
r -t 0.81392 -s 1 -d 0 -p ack -e 40 -c 0 -i 4 -a 0 -x {2.0 0.0 1 ------- null}
+ -t 0.81392 -s 0 -d 1 -p tcp -e 1040 -c 0 -i 6 -a 0 -x {0.0 2.0 3 ------- null}
- -t 0.81392 -s 0 -d 1 -p tcp -e 1040 -c 0 -i 6 -a 0 -x {0.0 2.0 3 ------- null}
h -t 0.81392 -s 0 -d 1 -p tcp -e 1040 -c 0 -i 6 -a 0 -x {0.0 2.0 -1 ------- null}
+ -t 0.81392 -s 0 -d 1 -p tcp -e 1040 -c 0 -i 7 -a 0 -x {0.0 2.0 4 ------- null}
- -t 0.81808 -s 0 -d 1 -p tcp -e 1040 -c 0 -i 7 -a 0 -x {0.0 2.0 4 ------- null}
h -t 0.81808 -s 0 -d 1 -p tcp -e 1040 -c 0 -i 7 -a 0 -x {0.0 2.0 -1 ------- null}
r -t 0.82224 -s 1 -d 0 -p ack -e 40 -c 0 -i 5 -a 0 -x {2.0 0.0 2 ------- null}
+ -t 0.82224 -s 0 -d 1 -p tcp -e 1040 -c 0 -i 8 -a 0 -x {0.0 2.0 5 ------- null}
+ -t 0.82224 -s 0 -d 1 -p tcp -e 1040 -c 0 -i 9 -a 0 -x {0.0 2.0 6 ------- null}
- -t 0.82224 -s 0 -d 1 -p tcp -e 1040 -c 0 -i 8 -a 0 -x {0.0 2.0 5 ------- null}
h -t 0.82224 -s 0 -d 1 -p tcp -e 1040 -c 0 -i 8 -a 0 -x {0.0 2.0 -1 ------- null}
- -t 0.8264 -s 0 -d 1 -p tcp -e 1040 -c 0 -i 9 -a 0 -x {0.0 2.0 6 ------- null}
h -t 0.8264 -s 0 -d 1 -p tcp -e 1040 -c 0 -i 9 -a 0 -x {0.0 2.0 -1 ------- null}
r -t 0.91808 -s 0 -d 1 -p tcp -e 1040 -c 0 -i 6 -a 0 -x {0.0 2.0 3 ------- null}
+ -t 0.91808 -s 1 -d 2 -p tcp -e 1040 -c 0 -i 6 -a 0 -x {0.0 2.0 3 ------- null}
- -t 0.91808 -s 1 -d 2 -p tcp -e 1040 -c 0 -i 6 -a 0 -x {0.0 2.0 3 ------- null}
h -t 0.91808 -s 1 -d 2 -p tcp -e 1040 -c 0 -i 6 -a 0 -x {0.0 2.0 -1 ------- null}
r -t 0.92224 -s 0 -d 1 -p tcp -e 1040 -c 0 -i 7 -a 0 -x {0.0 2.0 4 ------- null}
+ -t 0.92224 -s 1 -d 2 -p tcp -e 1040 -c 0 -i 7 -a 0 -x {0.0 2.0 4 ------- null}
- -t 0.9264 -s 1 -d 2 -p tcp -e 1040 -c 0 -i 7 -a 0 -x {0.0 2.0 4 ------- null}
h -t 0.9264 -s 1 -d 2 -p tcp -e 1040 -c 0 -i 7 -a 0 -x {0.0 2.0 -1 ------- null}
r -t 0.9264 -s 0 -d 1 -p tcp -e 1040 -c 0 -i 8 -a 0 -x {0.0 2.0 5 ------- null}
+ -t 0.9264 -s 1 -d 2 -p tcp -e 1040 -c 0 -i 8 -a 0 -x {0.0 2.0 5 ------- null}
r -t 0.93056 -s 0 -d 1 -p tcp -e 1040 -c 0 -i 9 -a 0 -x {0.0 2.0 6 ------- null}
+ -t 0.93056 -s 1 -d 2 -p tcp -e 1040 -c 0 -i 9 -a 0 -x {0.0 2.0 6 ------- null}
- -t 0.93472 -s 1 -d 2 -p tcp -e 1040 -c 0 -i 8 -a 0 -x {0.0 2.0 5 ------- null}
h -t 0.93472 -s 1 -d 2 -p tcp -e 1040 -c 0 -i 8 -a 0 -x {0.0 2.0 -1 ------- null}
- -t 0.94304 -s 1 -d 2 -p tcp -e 1040 -c 0 -i 9 -a 0 -x {0.0 2.0 6 ------- null}
h -t 0.94304 -s 1 -d 2 -p tcp -e 1040 -c 0 -i 9 -a 0 -x {0.0 2.0 -1 ------- null}
r -t 1.0264 -s 1 -d 2 -p tcp -e 1040 -c 0 -i 6 -a 0 -x {0.0 2.0 3 ------- null}
+ -t 1.0264 -s 2 -d 1 -p ack -e 40 -c 0 -i 10 -a 0 -x {2.0 0.0 3 ------- null}
- -t 1.0264 -s 2 -d 1 -p ack -e 40 -c 0 -i 10 -a 0 -x {2.0 0.0 3 ------- null}
h -t 1.0264 -s 2 -d 1 -p ack -e 40 -c 0 -i 10 -a 0 -x {2.0 0.0 -1 ------- null}
r -t 1.03472 -s 1 -d 2 -p tcp -e 1040 -c 0 -i 7 -a 0 -x {0.0 2.0 4 ------- null}
+ -t 1.03472 -s 2 -d 1 -p ack -e 40 -c 0 -i 11 -a 0 -x {2.0 0.0 4 ------- null}
- -t 1.03472 -s 2 -d 1 -p ack -e 40 -c 0 -i 11 -a 0 -x {2.0 0.0 4 ------- null}
h -t 1.03472 -s 2 -d 1 -p ack -e 40 -c 0 -i 11 -a 0 -x {2.0 0.0 -1 ------- null}
r -t 1.04304 -s 1 -d 2 -p tcp -e 1040 -c 0 -i 8 -a 0 -x {0.0 2.0 5 ------- null}
+ -t 1.04304 -s 2 -d 1 -p ack -e 40 -c 0 -i 12 -a 0 -x {2.0 0.0 5 ------- null}
- -t 1.04304 -s 2 -d 1 -p ack -e 40 -c 0 -i 12 -a 0 -x {2.0 0.0 5 ------- null}
h -t 1.04304 -s 2 -d 1 -p ack -e 40 -c 0 -i 12 -a 0 -x {2.0 0.0 -1 ------- null}
r -t 1.05136 -s 1 -d 2 -p tcp -e 1040 -c 0 -i 9 -a 0 -x {0.0 2.0 6 ------- null}
+ -t 1.05136 -s 2 -d 1 -p ack -e 40 -c 0 -i 13 -a 0 -x {2.0 0.0 6 ------- null}
- -t 1.05136 -s 2 -d 1 -p ack -e 40 -c 0 -i 13 -a 0 -x {2.0 0.0 6 ------- null}
h -t 1.05136 -s 2 -d 1 -p ack -e 40 -c 0 -i 13 -a 0 -x {2.0 0.0 -1 ------- null}
r -t 1.12672 -s 2 -d 1 -p ack -e 40 -c 0 -i 10 -a 0 -x {2.0 0.0 3 ------- null}
+ -t 1.12672 -s 1 -d 0 -p ack -e 40 -c 0 -i 10 -a 0 -x {2.0 0.0 3 ------- null}
- -t 1.12672 -s 1 -d 0 -p ack -e 40 -c 0 -i 10 -a 0 -x {2.0 0.0 3 ------- null}
h -t 1.12672 -s 1 -d 0 -p ack -e 40 -c 0 -i 10 -a 0 -x {2.0 0.0 -1 ------- null}
r -t 1.13504 -s 2 -d 1 -p ack -e 40 -c 0 -i 11 -a 0 -x {2.0 0.0 4 ------- null}
+ -t 1.13504 -s 1 -d 0 -p ack -e 40 -c 0 -i 11 -a 0 -x {2.0 0.0 4 ------- null}
- -t 1.13504 -s 1 -d 0 -p ack -e 40 -c 0 -i 11 -a 0 -x {2.0 0.0 4 ------- null}
h -t 1.13504 -s 1 -d 0 -p ack -e 40 -c 0 -i 11 -a 0 -x {2.0 0.0 -1 ------- null}
r -t 1.14336 -s 2 -d 1 -p ack -e 40 -c 0 -i 12 -a 0 -x {2.0 0.0 5 ------- null}
+ -t 1.14336 -s 1 -d 0 -p ack -e 40 -c 0 -i 12 -a 0 -x {2.0 0.0 5 ------- null}
- -t 1.14336 -s 1 -d 0 -p ack -e 40 -c 0 -i 12 -a 0 -x {2.0 0.0 5 ------- null}
h -t 1.14336 -s 1 -d 0 -p ack -e 40 -c 0 -i 12 -a 0 -x {2.0 0.0 -1 ------- null}
r -t 1.15168 -s 2 -d 1 -p ack -e 40 -c 0 -i 13 -a 0 -x {2.0 0.0 6 ------- null}
+ -t 1.15168 -s 1 -d 0 -p ack -e 40 -c 0 -i 13 -a 0 -x {2.0 0.0 6 ------- null}
- -t 1.15168 -s 1 -d 0 -p ack -e 40 -c 0 -i 13 -a 0 -x {2.0 0.0 6 ------- null}
h -t 1.15168 -s 1 -d 0 -p ack -e 40 -c 0 -i 13 -a 0 -x {2.0 0.0 -1 ------- null}
r -t 1.22688 -s 1 -d 0 -p ack -e 40 -c 0 -i 10 -a 0 -x {2.0 0.0 3 ------- null}
+ -t 1.22688 -s 0 -d 1 -p tcp -e 1040 -c 0 -i 14 -a 0 -x {0.0 2.0 7 ------- null}
- -t 1.22688 -s 0 -d 1 -p tcp -e 1040 -c 0 -i 14 -a 0 -x {0.0 2.0 7 ------- null}
h -t 1.22688 -s 0 -d 1 -p tcp -e 1040 -c 0 -i 14 -a 0 -x {0.0 2.0 -1 ------- null}
+ -t 1.22688 -s 0 -d 1 -p tcp -e 1040 -c 0 -i 15 -a 0 -x {0.0 2.0 8 ------- null}
- -t 1.23104 -s 0 -d 1 -p tcp -e 1040 -c 0 -i 15 -a 0 -x {0.0 2.0 8 ------- null}
h -t 1.23104 -s 0 -d 1 -p tcp -e 1040 -c 0 -i 15 -a 0 -x {0.0 2.0 -1 ------- null}
r -t 1.2352 -s 1 -d 0 -p ack -e 40 -c 0 -i 11 -a 0 -x {2.0 0.0 4 ------- null}
+ -t 1.2352 -s 0 -d 1 -p tcp -e 1040 -c 0 -i 16 -a 0 -x {0.0 2.0 9 ------- null}
- -t 1.2352 -s 0 -d 1 -p tcp -e 1040 -c 0 -i 16 -a 0 -x {0.0 2.0 9 ------- null}
h -t 1.2352 -s 0 -d 1 -p tcp -e 1040 -c 0 -i 16 -a 0 -x {0.0 2.0 -1 ------- null}
+ -t 1.2352 -s 0 -d 1 -p tcp -e 1040 -c 0 -i 17 -a 0 -x {0.0 2.0 10 ------- null}
- -t 1.23936 -s 0 -d 1 -p tcp -e 1040 -c 0 -i 17 -a 0 -x {0.0 2.0 10 ------- null}
h -t 1.23936 -s 0 -d 1 -p tcp -e 1040 -c 0 -i 17 -a 0 -x {0.0 2.0 -1 ------- null}
r -t 1.24352 -s 1 -d 0 -p ack -e 40 -c 0 -i 12 -a 0 -x {2.0 0.0 5 ------- null}
+ -t 1.24352 -s 0 -d 1 -p tcp -e 1040 -c 0 -i 18 -a 0 -x {0.0 2.0 11 ------- null}
+ -t 1.24352 -s 0 -d 1 -p tcp -e 1040 -c 0 -i 19 -a 0 -x {0.0 2.0 12 ------- null}
- -t 1.24352 -s 0 -d 1 -p tcp -e 1040 -c 0 -i 18 -a 0 -x {0.0 2.0 11 ------- null}
h -t 1.24352 -s 0 -d 1 -p tcp -e 1040 -c 0 -i 18 -a 0 -x {0.0 2.0 -1 ------- null}
- -t 1.24768 -s 0 -d 1 -p tcp -e 1040 -c 0 -i 19 -a 0 -x {0.0 2.0 12 ------- null}
h -t 1.24768 -s 0 -d 1 -p tcp -e 1040 -c 0 -i 19 -a 0 -x {0.0 2.0 -1 ------- null}
r -t 1.25184 -s 1 -d 0 -p ack -e 40 -c 0 -i 13 -a 0 -x {2.0 0.0 6 ------- null}
+ -t 1.25184 -s 0 -d 1 -p tcp -e 1040 -c 0 -i 20 -a 0 -x {0.0 2.0 13 ------- null}
- -t 1.25184 -s 0 -d 1 -p tcp -e 1040 -c 0 -i 20 -a 0 -x {0.0 2.0 13 ------- null}
h -t 1.25184 -s 0 -d 1 -p tcp -e 1040 -c 0 -i 20 -a 0 -x {0.0 2.0 -1 ------- null}
+ -t 1.25184 -s 0 -d 1 -p tcp -e 1040 -c 0 -i 21 -a 0 -x {0.0 2.0 14 ------- null}
- -t 1.256 -s 0 -d 1 -p tcp -e 1040 -c 0 -i 21 -a 0 -x {0.0 2.0 14 ------- null}
h -t 1.256 -s 0 -d 1 -p tcp -e 1040 -c 0 -i 21 -a 0 -x {0.0 2.0 -1 ------- null}
r -t 1.33104 -s 0 -d 1 -p tcp -e 1040 -c 0 -i 14 -a 0 -x {0.0 2.0 7 ------- null}
+ -t 1.33104 -s 1 -d 2 -p tcp -e 1040 -c 0 -i 14 -a 0 -x {0.0 2.0 7 ------- null}
- -t 1.33104 -s 1 -d 2 -p tcp -e 1040 -c 0 -i 14 -a 0 -x {0.0 2.0 7 ------- null}
h -t 1.33104 -s 1 -d 2 -p tcp -e 1040 -c 0 -i 14 -a 0 -x {0.0 2.0 -1 ------- null}
r -t 1.3352 -s 0 -d 1 -p tcp -e 1040 -c 0 -i 15 -a 0 -x {0.0 2.0 8 ------- null}
+ -t 1.3352 -s 1 -d 2 -p tcp -e 1040 -c 0 -i 15 -a 0 -x {0.0 2.0 8 ------- null}
r -t 1.33936 -s 0 -d 1 -p tcp -e 1040 -c 0 -i 16 -a 0 -x {0.0 2.0 9 ------- null}
+ -t 1.33936 -s 1 -d 2 -p tcp -e 1040 -c 0 -i 16 -a 0 -x {0.0 2.0 9 ------- null}
- -t 1.33936 -s 1 -d 2 -p tcp -e 1040 -c 0 -i 15 -a 0 -x {0.0 2.0 8 ------- null}
h -t 1.33936 -s 1 -d 2 -p tcp -e 1040 -c 0 -i 15 -a 0 -x {0.0 2.0 -1 ------- null}
r -t 1.34352 -s 0 -d 1 -p tcp -e 1040 -c 0 -i 17 -a 0 -x {0.0 2.0 10 ------- null}
+ -t 1.34352 -s 1 -d 2 -p tcp -e 1040 -c 0 -i 17 -a 0 -x {0.0 2.0 10 ------- null}
r -t 1.34768 -s 0 -d 1 -p tcp -e 1040 -c 0 -i 18 -a 0 -x {0.0 2.0 11 ------- null}
+ -t 1.34768 -s 1 -d 2 -p tcp -e 1040 -c 0 -i 18 -a 0 -x {0.0 2.0 11 ------- null}
- -t 1.34768 -s 1 -d 2 -p tcp -e 1040 -c 0 -i 16 -a 0 -x {0.0 2.0 9 ------- null}
h -t 1.34768 -s 1 -d 2 -p tcp -e 1040 -c 0 -i 16 -a 0 -x {0.0 2.0 -1 ------- null}
r -t 1.35184 -s 0 -d 1 -p tcp -e 1040 -c 0 -i 19 -a 0 -x {0.0 2.0 12 ------- null}
+ -t 1.35184 -s 1 -d 2 -p tcp -e 1040 -c 0 -i 19 -a 0 -x {0.0 2.0 12 ------- null}
r -t 1.356 -s 0 -d 1 -p tcp -e 1040 -c 0 -i 20 -a 0 -x {0.0 2.0 13 ------- null}
+ -t 1.356 -s 1 -d 2 -p tcp -e 1040 -c 0 -i 20 -a 0 -x {0.0 2.0 13 ------- null}
- -t 1.356 -s 1 -d 2 -p tcp -e 1040 -c 0 -i 17 -a 0 -x {0.0 2.0 10 ------- null}
h -t 1.356 -s 1 -d 2 -p tcp -e 1040 -c 0 -i 17 -a 0 -x {0.0 2.0 -1 ------- null}
r -t 1.36016 -s 0 -d 1 -p tcp -e 1040 -c 0 -i 21 -a 0 -x {0.0 2.0 14 ------- null}
+ -t 1.36016 -s 1 -d 2 -p tcp -e 1040 -c 0 -i 21 -a 0 -x {0.0 2.0 14 ------- null}
- -t 1.36432 -s 1 -d 2 -p tcp -e 1040 -c 0 -i 18 -a 0 -x {0.0 2.0 11 ------- null}
h -t 1.36432 -s 1 -d 2 -p tcp -e 1040 -c 0 -i 18 -a 0 -x {0.0 2.0 -1 ------- null}
- -t 1.37264 -s 1 -d 2 -p tcp -e 1040 -c 0 -i 19 -a 0 -x {0.0 2.0 12 ------- null}
h -t 1.37264 -s 1 -d 2 -p tcp -e 1040 -c 0 -i 19 -a 0 -x {0.0 2.0 -1 ------- null}
- -t 1.38096 -s 1 -d 2 -p tcp -e 1040 -c 0 -i 20 -a 0 -x {0.0 2.0 13 ------- null}
h -t 1.38096 -s 1 -d 2 -p tcp -e 1040 -c 0 -i 20 -a 0 -x {0.0 2.0 -1 ------- null}
- -t 1.38928 -s 1 -d 2 -p tcp -e 1040 -c 0 -i 21 -a 0 -x {0.0 2.0 14 ------- null}
h -t 1.38928 -s 1 -d 2 -p tcp -e 1040 -c 0 -i 21 -a 0 -x {0.0 2.0 -1 ------- null}
r -t 1.43936 -s 1 -d 2 -p tcp -e 1040 -c 0 -i 14 -a 0 -x {0.0 2.0 7 ------- null}
+ -t 1.43936 -s 2 -d 1 -p ack -e 40 -c 0 -i 22 -a 0 -x {2.0 0.0 7 ------- null}
- -t 1.43936 -s 2 -d 1 -p ack -e 40 -c 0 -i 22 -a 0 -x {2.0 0.0 7 ------- null}
h -t 1.43936 -s 2 -d 1 -p ack -e 40 -c 0 -i 22 -a 0 -x {2.0 0.0 -1 ------- null}
r -t 1.44768 -s 1 -d 2 -p tcp -e 1040 -c 0 -i 15 -a 0 -x {0.0 2.0 8 ------- null}
+ -t 1.44768 -s 2 -d 1 -p ack -e 40 -c 0 -i 23 -a 0 -x {2.0 0.0 8 ------- null}
- -t 1.44768 -s 2 -d 1 -p ack -e 40 -c 0 -i 23 -a 0 -x {2.0 0.0 8 ------- null}
h -t 1.44768 -s 2 -d 1 -p ack -e 40 -c 0 -i 23 -a 0 -x {2.0 0.0 -1 ------- null}
r -t 1.456 -s 1 -d 2 -p tcp -e 1040 -c 0 -i 16 -a 0 -x {0.0 2.0 9 ------- null}
+ -t 1.456 -s 2 -d 1 -p ack -e 40 -c 0 -i 24 -a 0 -x {2.0 0.0 9 ------- null}
- -t 1.456 -s 2 -d 1 -p ack -e 40 -c 0 -i 24 -a 0 -x {2.0 0.0 9 ------- null}
h -t 1.456 -s 2 -d 1 -p ack -e 40 -c 0 -i 24 -a 0 -x {2.0 0.0 -1 ------- null}
r -t 1.46432 -s 1 -d 2 -p tcp -e 1040 -c 0 -i 17 -a 0 -x {0.0 2.0 10 ------- null}
+ -t 1.46432 -s 2 -d 1 -p ack -e 40 -c 0 -i 25 -a 0 -x {2.0 0.0 10 ------- null}
- -t 1.46432 -s 2 -d 1 -p ack -e 40 -c 0 -i 25 -a 0 -x {2.0 0.0 10 ------- null}
h -t 1.46432 -s 2 -d 1 -p ack -e 40 -c 0 -i 25 -a 0 -x {2.0 0.0 -1 ------- null}
r -t 1.47264 -s 1 -d 2 -p tcp -e 1040 -c 0 -i 18 -a 0 -x {0.0 2.0 11 ------- null}
+ -t 1.47264 -s 2 -d 1 -p ack -e 40 -c 0 -i 26 -a 0 -x {2.0 0.0 11 ------- null}
- -t 1.47264 -s 2 -d 1 -p ack -e 40 -c 0 -i 26 -a 0 -x {2.0 0.0 11 ------- null}
h -t 1.47264 -s 2 -d 1 -p ack -e 40 -c 0 -i 26 -a 0 -x {2.0 0.0 -1 ------- null}
r -t 1.48096 -s 1 -d 2 -p tcp -e 1040 -c 0 -i 19 -a 0 -x {0.0 2.0 12 ------- null}
+ -t 1.48096 -s 2 -d 1 -p ack -e 40 -c 0 -i 27 -a 0 -x {2.0 0.0 12 ------- null}
- -t 1.48096 -s 2 -d 1 -p ack -e 40 -c 0 -i 27 -a 0 -x {2.0 0.0 12 ------- null}
h -t 1.48096 -s 2 -d 1 -p ack -e 40 -c 0 -i 27 -a 0 -x {2.0 0.0 -1 ------- null}
r -t 1.48928 -s 1 -d 2 -p tcp -e 1040 -c 0 -i 20 -a 0 -x {0.0 2.0 13 ------- null}
+ -t 1.48928 -s 2 -d 1 -p ack -e 40 -c 0 -i 28 -a 0 -x {2.0 0.0 13 ------- null}
- -t 1.48928 -s 2 -d 1 -p ack -e 40 -c 0 -i 28 -a 0 -x {2.0 0.0 13 ------- null}
h -t 1.48928 -s 2 -d 1 -p ack -e 40 -c 0 -i 28 -a 0 -x {2.0 0.0 -1 ------- null}
r -t 1.4976 -s 1 -d 2 -p tcp -e 1040 -c 0 -i 21 -a 0 -x {0.0 2.0 14 ------- null}
+ -t 1.4976 -s 2 -d 1 -p ack -e 40 -c 0 -i 29 -a 0 -x {2.0 0.0 14 ------- null}
- -t 1.4976 -s 2 -d 1 -p ack -e 40 -c 0 -i 29 -a 0 -x {2.0 0.0 14 ------- null}
h -t 1.4976 -s 2 -d 1 -p ack -e 40 -c 0 -i 29 -a 0 -x {2.0 0.0 -1 ------- null}
r -t 1.53968 -s 2 -d 1 -p ack -e 40 -c 0 -i 22 -a 0 -x {2.0 0.0 7 ------- null}
+ -t 1.53968 -s 1 -d 0 -p ack -e 40 -c 0 -i 22 -a 0 -x {2.0 0.0 7 ------- null}
- -t 1.53968 -s 1 -d 0 -p ack -e 40 -c 0 -i 22 -a 0 -x {2.0 0.0 7 ------- null}
h -t 1.53968 -s 1 -d 0 -p ack -e 40 -c 0 -i 22 -a 0 -x {2.0 0.0 -1 ------- null}
r -t 1.548 -s 2 -d 1 -p ack -e 40 -c 0 -i 23 -a 0 -x {2.0 0.0 8 ------- null}
+ -t 1.548 -s 1 -d 0 -p ack -e 40 -c 0 -i 23 -a 0 -x {2.0 0.0 8 ------- null}
- -t 1.548 -s 1 -d 0 -p ack -e 40 -c 0 -i 23 -a 0 -x {2.0 0.0 8 ------- null}
h -t 1.548 -s 1 -d 0 -p ack -e 40 -c 0 -i 23 -a 0 -x {2.0 0.0 -1 ------- null}
r -t 1.55632 -s 2 -d 1 -p ack -e 40 -c 0 -i 24 -a 0 -x {2.0 0.0 9 ------- null}
+ -t 1.55632 -s 1 -d 0 -p ack -e 40 -c 0 -i 24 -a 0 -x {2.0 0.0 9 ------- null}
- -t 1.55632 -s 1 -d 0 -p ack -e 40 -c 0 -i 24 -a 0 -x {2.0 0.0 9 ------- null}
h -t 1.55632 -s 1 -d 0 -p ack -e 40 -c 0 -i 24 -a 0 -x {2.0 0.0 -1 ------- null}
r -t 1.56464 -s 2 -d 1 -p ack -e 40 -c 0 -i 25 -a 0 -x {2.0 0.0 10 ------- null}
+ -t 1.56464 -s 1 -d 0 -p ack -e 40 -c 0 -i 25 -a 0 -x {2.0 0.0 10 ------- null}
- -t 1.56464 -s 1 -d 0 -p ack -e 40 -c 0 -i 25 -a 0 -x {2.0 0.0 10 ------- null}
h -t 1.56464 -s 1 -d 0 -p ack -e 40 -c 0 -i 25 -a 0 -x {2.0 0.0 -1 ------- null}
r -t 1.57296 -s 2 -d 1 -p ack -e 40 -c 0 -i 26 -a 0 -x {2.0 0.0 11 ------- null}
+ -t 1.57296 -s 1 -d 0 -p ack -e 40 -c 0 -i 26 -a 0 -x {2.0 0.0 11 ------- null}
- -t 1.57296 -s 1 -d 0 -p ack -e 40 -c 0 -i 26 -a 0 -x {2.0 0.0 11 ------- null}
h -t 1.57296 -s 1 -d 0 -p ack -e 40 -c 0 -i 26 -a 0 -x {2.0 0.0 -1 ------- null}
r -t 1.58128 -s 2 -d 1 -p ack -e 40 -c 0 -i 27 -a 0 -x {2.0 0.0 12 ------- null}
+ -t 1.58128 -s 1 -d 0 -p ack -e 40 -c 0 -i 27 -a 0 -x {2.0 0.0 12 ------- null}
- -t 1.58128 -s 1 -d 0 -p ack -e 40 -c 0 -i 27 -a 0 -x {2.0 0.0 12 ------- null}
h -t 1.58128 -s 1 -d 0 -p ack -e 40 -c 0 -i 27 -a 0 -x {2.0 0.0 -1 ------- null}
r -t 1.5896 -s 2 -d 1 -p ack -e 40 -c 0 -i 28 -a 0 -x {2.0 0.0 13 ------- null}
+ -t 1.5896 -s 1 -d 0 -p ack -e 40 -c 0 -i 28 -a 0 -x {2.0 0.0 13 ------- null}
- -t 1.5896 -s 1 -d 0 -p ack -e 40 -c 0 -i 28 -a 0 -x {2.0 0.0 13 ------- null}
h -t 1.5896 -s 1 -d 0 -p ack -e 40 -c 0 -i 28 -a 0 -x {2.0 0.0 -1 ------- null}
r -t 1.59792 -s 2 -d 1 -p ack -e 40 -c 0 -i 29 -a 0 -x {2.0 0.0 14 ------- null}
+ -t 1.59792 -s 1 -d 0 -p ack -e 40 -c 0 -i 29 -a 0 -x {2.0 0.0 14 ------- null}
- -t 1.59792 -s 1 -d 0 -p ack -e 40 -c 0 -i 29 -a 0 -x {2.0 0.0 14 ------- null}
h -t 1.59792 -s 1 -d 0 -p ack -e 40 -c 0 -i 29 -a 0 -x {2.0 0.0 -1 ------- null}
r -t 1.63984 -s 1 -d 0 -p ack -e 40 -c 0 -i 22 -a 0 -x {2.0 0.0 7 ------- null}
+ -t 1.63984 -s 0 -d 1 -p tcp -e 1040 -c 0 -i 30 -a 0 -x {0.0 2.0 15 ------- null}
- -t 1.63984 -s 0 -d 1 -p tcp -e 1040 -c 0 -i 30 -a 0 -x {0.0 2.0 15 ------- null}
h -t 1.63984 -s 0 -d 1 -p tcp -e 1040 -c 0 -i 30 -a 0 -x {0.0 2.0 -1 ------- null}
+ -t 1.63984 -s 0 -d 1 -p tcp -e 1040 -c 0 -i 31 -a 0 -x {0.0 2.0 16 ------- null}
- -t 1.644 -s 0 -d 1 -p tcp -e 1040 -c 0 -i 31 -a 0 -x {0.0 2.0 16 ------- null}
h -t 1.644 -s 0 -d 1 -p tcp -e 1040 -c 0 -i 31 -a 0 -x {0.0 2.0 -1 ------- null}
r -t 1.64816 -s 1 -d 0 -p ack -e 40 -c 0 -i 23 -a 0 -x {2.0 0.0 8 ------- null}
+ -t 1.64816 -s 0 -d 1 -p tcp -e 1040 -c 0 -i 32 -a 0 -x {0.0 2.0 17 ------- null}
- -t 1.64816 -s 0 -d 1 -p tcp -e 1040 -c 0 -i 32 -a 0 -x {0.0 2.0 17 ------- null}
h -t 1.64816 -s 0 -d 1 -p tcp -e 1040 -c 0 -i 32 -a 0 -x {0.0 2.0 -1 ------- null}
+ -t 1.64816 -s 0 -d 1 -p tcp -e 1040 -c 0 -i 33 -a 0 -x {0.0 2.0 18 ------- null}
- -t 1.65232 -s 0 -d 1 -p tcp -e 1040 -c 0 -i 33 -a 0 -x {0.0 2.0 18 ------- null}
h -t 1.65232 -s 0 -d 1 -p tcp -e 1040 -c 0 -i 33 -a 0 -x {0.0 2.0 -1 ------- null}
r -t 1.65648 -s 1 -d 0 -p ack -e 40 -c 0 -i 24 -a 0 -x {2.0 0.0 9 ------- null}
+ -t 1.65648 -s 0 -d 1 -p tcp -e 1040 -c 0 -i 34 -a 0 -x {0.0 2.0 19 ------- null}
- -t 1.65648 -s 0 -d 1 -p tcp -e 1040 -c 0 -i 34 -a 0 -x {0.0 2.0 19 ------- null}
h -t 1.65648 -s 0 -d 1 -p tcp -e 1040 -c 0 -i 34 -a 0 -x {0.0 2.0 -1 ------- null}
+ -t 1.65648 -s 0 -d 1 -p tcp -e 1040 -c 0 -i 35 -a 0 -x {0.0 2.0 20 ------- null}
- -t 1.66064 -s 0 -d 1 -p tcp -e 1040 -c 0 -i 35 -a 0 -x {0.0 2.0 20 ------- null}
h -t 1.66064 -s 0 -d 1 -p tcp -e 1040 -c 0 -i 35 -a 0 -x {0.0 2.0 -1 ------- null}
r -t 1.6648 -s 1 -d 0 -p ack -e 40 -c 0 -i 25 -a 0 -x {2.0 0.0 10 ------- null}
+ -t 1.6648 -s 0 -d 1 -p tcp -e 1040 -c 0 -i 36 -a 0 -x {0.0 2.0 21 ------- null}
- -t 1.6648 -s 0 -d 1 -p tcp -e 1040 -c 0 -i 36 -a 0 -x {0.0 2.0 21 ------- null}
h -t 1.6648 -s 0 -d 1 -p tcp -e 1040 -c 0 -i 36 -a 0 -x {0.0 2.0 -1 ------- null}
+ -t 1.6648 -s 0 -d 1 -p tcp -e 1040 -c 0 -i 37 -a 0 -x {0.0 2.0 22 ------- null}
- -t 1.66896 -s 0 -d 1 -p tcp -e 1040 -c 0 -i 37 -a 0 -x {0.0 2.0 22 ------- null}
h -t 1.66896 -s 0 -d 1 -p tcp -e 1040 -c 0 -i 37 -a 0 -x {0.0 2.0 -1 ------- null}
r -t 1.67312 -s 1 -d 0 -p ack -e 40 -c 0 -i 26 -a 0 -x {2.0 0.0 11 ------- null}
+ -t 1.67312 -s 0 -d 1 -p tcp -e 1040 -c 0 -i 38 -a 0 -x {0.0 2.0 23 ------- null}
- -t 1.67312 -s 0 -d 1 -p tcp -e 1040 -c 0 -i 38 -a 0 -x {0.0 2.0 23 ------- null}
h -t 1.67312 -s 0 -d 1 -p tcp -e 1040 -c 0 -i 38 -a 0 -x {0.0 2.0 -1 ------- null}
+ -t 1.67312 -s 0 -d 1 -p tcp -e 1040 -c 0 -i 39 -a 0 -x {0.0 2.0 24 ------- null}
- -t 1.67728 -s 0 -d 1 -p tcp -e 1040 -c 0 -i 39 -a 0 -x {0.0 2.0 24 ------- null}
h -t 1.67728 -s 0 -d 1 -p tcp -e 1040 -c 0 -i 39 -a 0 -x {0.0 2.0 -1 ------- null}
r -t 1.68144 -s 1 -d 0 -p ack -e 40 -c 0 -i 27 -a 0 -x {2.0 0.0 12 ------- null}
+ -t 1.68144 -s 0 -d 1 -p tcp -e 1040 -c 0 -i 40 -a 0 -x {0.0 2.0 25 ------- null}
- -t 1.68144 -s 0 -d 1 -p tcp -e 1040 -c 0 -i 40 -a 0 -x {0.0 2.0 25 ------- null}
h -t 1.68144 -s 0 -d 1 -p tcp -e 1040 -c 0 -i 40 -a 0 -x {0.0 2.0 -1 ------- null}
+ -t 1.68144 -s 0 -d 1 -p tcp -e 1040 -c 0 -i 41 -a 0 -x {0.0 2.0 26 ------- null}
- -t 1.6856 -s 0 -d 1 -p tcp -e 1040 -c 0 -i 41 -a 0 -x {0.0 2.0 26 ------- null}
h -t 1.6856 -s 0 -d 1 -p tcp -e 1040 -c 0 -i 41 -a 0 -x {0.0 2.0 -1 ------- null}
r -t 1.68976 -s 1 -d 0 -p ack -e 40 -c 0 -i 28 -a 0 -x {2.0 0.0 13 ------- null}
+ -t 1.68976 -s 0 -d 1 -p tcp -e 1040 -c 0 -i 42 -a 0 -x {0.0 2.0 27 ------- null}
- -t 1.68976 -s 0 -d 1 -p tcp -e 1040 -c 0 -i 42 -a 0 -x {0.0 2.0 27 ------- null}
h -t 1.68976 -s 0 -d 1 -p tcp -e 1040 -c 0 -i 42 -a 0 -x {0.0 2.0 -1 ------- null}
+ -t 1.68976 -s 0 -d 1 -p tcp -e 1040 -c 0 -i 43 -a 0 -x {0.0 2.0 28 ------- null}
- -t 1.69392 -s 0 -d 1 -p tcp -e 1040 -c 0 -i 43 -a 0 -x {0.0 2.0 28 ------- null}
h -t 1.69392 -s 0 -d 1 -p tcp -e 1040 -c 0 -i 43 -a 0 -x {0.0 2.0 -1 ------- null}
r -t 1.69808 -s 1 -d 0 -p ack -e 40 -c 0 -i 29 -a 0 -x {2.0 0.0 14 ------- null}
+ -t 1.69808 -s 0 -d 1 -p tcp -e 1040 -c 0 -i 44 -a 0 -x {0.0 2.0 29 ------- null}
- -t 1.69808 -s 0 -d 1 -p tcp -e 1040 -c 0 -i 44 -a 0 -x {0.0 2.0 29 ------- null}
h -t 1.69808 -s 0 -d 1 -p tcp -e 1040 -c 0 -i 44 -a 0 -x {0.0 2.0 -1 ------- null}
+ -t 1.69808 -s 0 -d 1 -p tcp -e 1040 -c 0 -i 45 -a 0 -x {0.0 2.0 30 ------- null}
- -t 1.70224 -s 0 -d 1 -p tcp -e 1040 -c 0 -i 45 -a 0 -x {0.0 2.0 30 ------- null}
h -t 1.70224 -s 0 -d 1 -p tcp -e 1040 -c 0 -i 45 -a 0 -x {0.0 2.0 -1 ------- null}
r -t 1.744 -s 0 -d 1 -p tcp -e 1040 -c 0 -i 30 -a 0 -x {0.0 2.0 15 ------- null}
+ -t 1.744 -s 1 -d 2 -p tcp -e 1040 -c 0 -i 30 -a 0 -x {0.0 2.0 15 ------- null}
- -t 1.744 -s 1 -d 2 -p tcp -e 1040 -c 0 -i 30 -a 0 -x {0.0 2.0 15 ------- null}
h -t 1.744 -s 1 -d 2 -p tcp -e 1040 -c 0 -i 30 -a 0 -x {0.0 2.0 -1 ------- null}
r -t 1.74816 -s 0 -d 1 -p tcp -e 1040 -c 0 -i 31 -a 0 -x {0.0 2.0 16 ------- null}
+ -t 1.74816 -s 1 -d 2 -p tcp -e 1040 -c 0 -i 31 -a 0 -x {0.0 2.0 16 ------- null}
r -t 1.75232 -s 0 -d 1 -p tcp -e 1040 -c 0 -i 32 -a 0 -x {0.0 2.0 17 ------- null}
+ -t 1.75232 -s 1 -d 2 -p tcp -e 1040 -c 0 -i 32 -a 0 -x {0.0 2.0 17 ------- null}
- -t 1.75232 -s 1 -d 2 -p tcp -e 1040 -c 0 -i 31 -a 0 -x {0.0 2.0 16 ------- null}
h -t 1.75232 -s 1 -d 2 -p tcp -e 1040 -c 0 -i 31 -a 0 -x {0.0 2.0 -1 ------- null}
r -t 1.75648 -s 0 -d 1 -p tcp -e 1040 -c 0 -i 33 -a 0 -x {0.0 2.0 18 ------- null}
+ -t 1.75648 -s 1 -d 2 -p tcp -e 1040 -c 0 -i 33 -a 0 -x {0.0 2.0 18 ------- null}
r -t 1.76064 -s 0 -d 1 -p tcp -e 1040 -c 0 -i 34 -a 0 -x {0.0 2.0 19 ------- null}
+ -t 1.76064 -s 1 -d 2 -p tcp -e 1040 -c 0 -i 34 -a 0 -x {0.0 2.0 19 ------- null}
- -t 1.76064 -s 1 -d 2 -p tcp -e 1040 -c 0 -i 32 -a 0 -x {0.0 2.0 17 ------- null}
h -t 1.76064 -s 1 -d 2 -p tcp -e 1040 -c 0 -i 32 -a 0 -x {0.0 2.0 -1 ------- null}
r -t 1.7648 -s 0 -d 1 -p tcp -e 1040 -c 0 -i 35 -a 0 -x {0.0 2.0 20 ------- null}
+ -t 1.7648 -s 1 -d 2 -p tcp -e 1040 -c 0 -i 35 -a 0 -x {0.0 2.0 20 ------- null}
r -t 1.76896 -s 0 -d 1 -p tcp -e 1040 -c 0 -i 36 -a 0 -x {0.0 2.0 21 ------- null}
+ -t 1.76896 -s 1 -d 2 -p tcp -e 1040 -c 0 -i 36 -a 0 -x {0.0 2.0 21 ------- null}
- -t 1.76896 -s 1 -d 2 -p tcp -e 1040 -c 0 -i 33 -a 0 -x {0.0 2.0 18 ------- null}
h -t 1.76896 -s 1 -d 2 -p tcp -e 1040 -c 0 -i 33 -a 0 -x {0.0 2.0 -1 ------- null}
r -t 1.77312 -s 0 -d 1 -p tcp -e 1040 -c 0 -i 37 -a 0 -x {0.0 2.0 22 ------- null}
+ -t 1.77312 -s 1 -d 2 -p tcp -e 1040 -c 0 -i 37 -a 0 -x {0.0 2.0 22 ------- null}
r -t 1.77728 -s 0 -d 1 -p tcp -e 1040 -c 0 -i 38 -a 0 -x {0.0 2.0 23 ------- null}
+ -t 1.77728 -s 1 -d 2 -p tcp -e 1040 -c 0 -i 38 -a 0 -x {0.0 2.0 23 ------- null}
- -t 1.77728 -s 1 -d 2 -p tcp -e 1040 -c 0 -i 34 -a 0 -x {0.0 2.0 19 ------- null}
h -t 1.77728 -s 1 -d 2 -p tcp -e 1040 -c 0 -i 34 -a 0 -x {0.0 2.0 -1 ------- null}
r -t 1.78144 -s 0 -d 1 -p tcp -e 1040 -c 0 -i 39 -a 0 -x {0.0 2.0 24 ------- null}
+ -t 1.78144 -s 1 -d 2 -p tcp -e 1040 -c 0 -i 39 -a 0 -x {0.0 2.0 24 ------- null}
r -t 1.7856 -s 0 -d 1 -p tcp -e 1040 -c 0 -i 40 -a 0 -x {0.0 2.0 25 ------- null}
+ -t 1.7856 -s 1 -d 2 -p tcp -e 1040 -c 0 -i 40 -a 0 -x {0.0 2.0 25 ------- null}
- -t 1.7856 -s 1 -d 2 -p tcp -e 1040 -c 0 -i 35 -a 0 -x {0.0 2.0 20 ------- null}
h -t 1.7856 -s 1 -d 2 -p tcp -e 1040 -c 0 -i 35 -a 0 -x {0.0 2.0 -1 ------- null}
r -t 1.78976 -s 0 -d 1 -p tcp -e 1040 -c 0 -i 41 -a 0 -x {0.0 2.0 26 ------- null}
+ -t 1.78976 -s 1 -d 2 -p tcp -e 1040 -c 0 -i 41 -a 0 -x {0.0 2.0 26 ------- null}
r -t 1.79392 -s 0 -d 1 -p tcp -e 1040 -c 0 -i 42 -a 0 -x {0.0 2.0 27 ------- null}
+ -t 1.79392 -s 1 -d 2 -p tcp -e 1040 -c 0 -i 42 -a 0 -x {0.0 2.0 27 ------- null}
- -t 1.79392 -s 1 -d 2 -p tcp -e 1040 -c 0 -i 36 -a 0 -x {0.0 2.0 21 ------- null}
h -t 1.79392 -s 1 -d 2 -p tcp -e 1040 -c 0 -i 36 -a 0 -x {0.0 2.0 -1 ------- null}
r -t 1.79808 -s 0 -d 1 -p tcp -e 1040 -c 0 -i 43 -a 0 -x {0.0 2.0 28 ------- null}
+ -t 1.79808 -s 1 -d 2 -p tcp -e 1040 -c 0 -i 43 -a 0 -x {0.0 2.0 28 ------- null}
r -t 1.80224 -s 0 -d 1 -p tcp -e 1040 -c 0 -i 44 -a 0 -x {0.0 2.0 29 ------- null}
+ -t 1.80224 -s 1 -d 2 -p tcp -e 1040 -c 0 -i 44 -a 0 -x {0.0 2.0 29 ------- null}
- -t 1.80224 -s 1 -d 2 -p tcp -e 1040 -c 0 -i 37 -a 0 -x {0.0 2.0 22 ------- null}
h -t 1.80224 -s 1 -d 2 -p tcp -e 1040 -c 0 -i 37 -a 0 -x {0.0 2.0 -1 ------- null}
r -t 1.8064 -s 0 -d 1 -p tcp -e 1040 -c 0 -i 45 -a 0 -x {0.0 2.0 30 ------- null}
+ -t 1.8064 -s 1 -d 2 -p tcp -e 1040 -c 0 -i 45 -a 0 -x {0.0 2.0 30 ------- null}
- -t 1.81056 -s 1 -d 2 -p tcp -e 1040 -c 0 -i 38 -a 0 -x {0.0 2.0 23 ------- null}
h -t 1.81056 -s 1 -d 2 -p tcp -e 1040 -c 0 -i 38 -a 0 -x {0.0 2.0 -1 ------- null}
- -t 1.81888 -s 1 -d 2 -p tcp -e 1040 -c 0 -i 39 -a 0 -x {0.0 2.0 24 ------- null}
h -t 1.81888 -s 1 -d 2 -p tcp -e 1040 -c 0 -i 39 -a 0 -x {0.0 2.0 -1 ------- null}
- -t 1.8272 -s 1 -d 2 -p tcp -e 1040 -c 0 -i 40 -a 0 -x {0.0 2.0 25 ------- null}
h -t 1.8272 -s 1 -d 2 -p tcp -e 1040 -c 0 -i 40 -a 0 -x {0.0 2.0 -1 ------- null}
- -t 1.83552 -s 1 -d 2 -p tcp -e 1040 -c 0 -i 41 -a 0 -x {0.0 2.0 26 ------- null}
h -t 1.83552 -s 1 -d 2 -p tcp -e 1040 -c 0 -i 41 -a 0 -x {0.0 2.0 -1 ------- null}
- -t 1.84384 -s 1 -d 2 -p tcp -e 1040 -c 0 -i 42 -a 0 -x {0.0 2.0 27 ------- null}
h -t 1.84384 -s 1 -d 2 -p tcp -e 1040 -c 0 -i 42 -a 0 -x {0.0 2.0 -1 ------- null}
- -t 1.85216 -s 1 -d 2 -p tcp -e 1040 -c 0 -i 43 -a 0 -x {0.0 2.0 28 ------- null}
h -t 1.85216 -s 1 -d 2 -p tcp -e 1040 -c 0 -i 43 -a 0 -x {0.0 2.0 -1 ------- null}
r -t 1.85232 -s 1 -d 2 -p tcp -e 1040 -c 0 -i 30 -a 0 -x {0.0 2.0 15 ------- null}
+ -t 1.85232 -s 2 -d 1 -p ack -e 40 -c 0 -i 46 -a 0 -x {2.0 0.0 15 ------- null}
- -t 1.85232 -s 2 -d 1 -p ack -e 40 -c 0 -i 46 -a 0 -x {2.0 0.0 15 ------- null}
h -t 1.85232 -s 2 -d 1 -p ack -e 40 -c 0 -i 46 -a 0 -x {2.0 0.0 -1 ------- null}
- -t 1.86048 -s 1 -d 2 -p tcp -e 1040 -c 0 -i 44 -a 0 -x {0.0 2.0 29 ------- null}
h -t 1.86048 -s 1 -d 2 -p tcp -e 1040 -c 0 -i 44 -a 0 -x {0.0 2.0 -1 ------- null}
r -t 1.86064 -s 1 -d 2 -p tcp -e 1040 -c 0 -i 31 -a 0 -x {0.0 2.0 16 ------- null}
+ -t 1.86064 -s 2 -d 1 -p ack -e 40 -c 0 -i 47 -a 0 -x {2.0 0.0 16 ------- null}
- -t 1.86064 -s 2 -d 1 -p ack -e 40 -c 0 -i 47 -a 0 -x {2.0 0.0 16 ------- null}
h -t 1.86064 -s 2 -d 1 -p ack -e 40 -c 0 -i 47 -a 0 -x {2.0 0.0 -1 ------- null}
- -t 1.8688 -s 1 -d 2 -p tcp -e 1040 -c 0 -i 45 -a 0 -x {0.0 2.0 30 ------- null}
h -t 1.8688 -s 1 -d 2 -p tcp -e 1040 -c 0 -i 45 -a 0 -x {0.0 2.0 -1 ------- null}
r -t 1.86896 -s 1 -d 2 -p tcp -e 1040 -c 0 -i 32 -a 0 -x {0.0 2.0 17 ------- null}
+ -t 1.86896 -s 2 -d 1 -p ack -e 40 -c 0 -i 48 -a 0 -x {2.0 0.0 17 ------- null}
- -t 1.86896 -s 2 -d 1 -p ack -e 40 -c 0 -i 48 -a 0 -x {2.0 0.0 17 ------- null}