n -t * -s 0  -x 5 -y 5 -Z 0 -z 30  -v circle -c black
n -t * -s 1  -x 490 -y 285 -Z 0 -z 30  -v circle -c black
n -t * -s 2  -x 150 -y 240 -Z 0 -z 30  -v circle -c black
V -t * -v 1.0a5 -a 0
W -t * -x 500 -y 400
A -t * -n 1 -p 0 -o 0x7fffffff -c 30 -a 1
A -t * -h 1 -m 1073741823 -s 0
n -t 10.000000 -s 0 -x 5.000000 -y 5.000000 -U 2.121320 -V 2.121320 -T 115.494108
+ -t 10.000000000 -s 0 -d -1 -p tcp -e 40 -c 2 -a 0 -i 0 -k AGT 
- -t 10.000000000 -s 0 -d -1 -p tcp -e 40 -c 2 -a 0 -i 0 -k AGT
h -t 10.000000000 -s 0 -d -1 -p tcp -e 40 -c 2 -a 0 -i 0 -k AGT
+ -t 10.000000000 -s 0 -d -1 -p AODV -e 48 -c 2 -a 0 -i 0 -k RTR 
- -t 10.000000000 -s 0 -d -1 -p AODV -e 48 -c 2 -a 0 -i 0 -k RTR
h -t 10.000000000 -s 0 -d -1 -p AODV -e 48 -c 2 -a 0 -i 0 -k RTR
+ -t 12.000000000 -s 0 -d -1 -p AODV -e 48 -c 2 -a 0 -i 0 -k RTR 
- -t 12.000000000 -s 0 -d -1 -p AODV -e 48 -c 2 -a 0 -i 0 -k RTR
h -t 12.000000000 -s 0 -d -1 -p AODV -e 48 -c 2 -a 0 -i 0 -k RTR
+ -t 13.000000000 -s 0 -d -1 -p tcp -e 40 -c 2 -a 0 -i 1 -k AGT 
- -t 13.000000000 -s 0 -d -1 -p tcp -e 40 -c 2 -a 0 -i 1 -k AGT
h -t 13.000000000 -s 0 -d -1 -p tcp -e 40 -c 2 -a 0 -i 1 -k AGT
n -t 15.000000 -s 1 -x 490.000000 -y 285.000000 -U -5.000000 -V 0.000000 -T 89.000000
+ -t 16.000000000 -s 0 -d -1 -p AODV -e 48 -c 2 -a 0 -i 0 -k RTR 
- -t 16.000000000 -s 0 -d -1 -p AODV -e 48 -c 2 -a 0 -i 0 -k RTR
h -t 16.000000000 -s 0 -d -1 -p AODV -e 48 -c 2 -a 0 -i 0 -k RTR
+ -t 19.000000000 -s 0 -d -1 -p tcp -e 40 -c 2 -a 0 -i 2 -k AGT 
- -t 19.000000000 -s 0 -d -1 -p tcp -e 40 -c 2 -a 0 -i 2 -k AGT
h -t 19.000000000 -s 0 -d -1 -p tcp -e 40 -c 2 -a 0 -i 2 -k AGT
+ -t 21.500000000 -s 0 -d -1 -p AODV -e 48 -c 2 -a 0 -i 0 -k RTR 
- -t 21.500000000 -s 0 -d -1 -p AODV -e 48 -c 2 -a 0 -i 0 -k RTR
h -t 21.500000000 -s 0 -d -1 -p AODV -e 48 -c 2 -a 0 -i 0 -k RTR
r -t 21.501148809 -s 2 -d -1 -p AODV -e 48 -c 2 -a 0 -i 0 -k RTR
+ -t 21.507537460 -s 2 -d -1 -p AODV -e 48 -c 2 -a 0 -i 0 -k RTR 
- -t 21.507537460 -s 2 -d -1 -p AODV -e 48 -c 2 -a 0 -i 0 -k RTR
h -t 21.507537460 -s 2 -d -1 -p AODV -e 48 -c 2 -a 0 -i 0 -k RTR
r -t 21.508746269 -s 0 -d -1 -p AODV -e 48 -c 2 -a 0 -i 0 -k RTR
d -t 29.000000000 -s 0 -d -1 -p tcp -e 40 -c 2 -a 0 -i 0 -k RTR
d -t 29.000000000 -s 0 -d -1 -p tcp -e 40 -c 2 -a 0 -i 1 -k RTR
d -t 29.000000000 -s 0 -d -1 -p tcp -e 40 -c 2 -a 0 -i 2 -k RTR
+ -t 31.000000000 -s 0 -d -1 -p tcp -e 40 -c 2 -a 0 -i 3 -k AGT 
- -t 31.000000000 -s 0 -d -1 -p tcp -e 40 -c 2 -a 0 -i 3 -k AGT
h -t 31.000000000 -s 0 -d -1 -p tcp -e 40 -c 2 -a 0 -i 3 -k AGT
+ -t 39.000000000 -s 0 -d -1 -p AODV -e 48 -c 2 -a 0 -i 0 -k RTR 
- -t 39.000000000 -s 0 -d -1 -p AODV -e 48 -c 2 -a 0 -i 0 -k RTR
h -t 39.000000000 -s 0 -d -1 -p AODV -e 48 -c 2 -a 0 -i 0 -k RTR
r -t 39.000988642 -s 2 -d -1 -p AODV -e 48 -c 2 -a 0 -i 0 -k RTR
+ -t 39.007389318 -s 2 -d -1 -p AODV -e 48 -c 2 -a 0 -i 0 -k RTR 
- -t 39.007389318 -s 2 -d -1 -p AODV -e 48 -c 2 -a 0 -i 0 -k RTR
h -t 39.007389318 -s 2 -d -1 -p AODV -e 48 -c 2 -a 0 -i 0 -k RTR
r -t 39.008697960 -s 0 -d -1 -p AODV -e 48 -c 2 -a 0 -i 0 -k RTR
r -t 39.008698067 -s 1 -d -1 -p AODV -e 48 -c 2 -a 0 -i 0 -k RTR
+ -t 39.008698067 -s 1 -d 2 -p AODV -e 44 -c 2 -a 0 -i 0 -k RTR 
- -t 39.008698067 -s 1 -d 2 -p AODV -e 44 -c 2 -a 0 -i 0 -k RTR
h -t 39.008698067 -s 1 -d 2 -p AODV -e 44 -c 2 -a 0 -i 0 -k RTR
+ -t 39.013381305 -s 2 -d 0 -p AODV -e 44 -c 2 -a 0 -i 0 -k RTR 
- -t 39.013381305 -s 2 -d 0 -p AODV -e 44 -c 2 -a 0 -i 0 -k RTR
h -t 39.013381305 -s 2 -d 0 -p AODV -e 44 -c 2 -a 0 -i 0 -k RTR
+ -t 39.018252796 -s 0 -d 2 -p tcp -e 40 -c 2 -a 0 -i 3 -k RTR 
- -t 39.018252796 -s 0 -d 2 -p tcp -e 40 -c 2 -a 0 -i 3 -k RTR
h -t 39.018252796 -s 0 -d 2 -p tcp -e 40 -c 2 -a 0 -i 3 -k RTR
+ -t 39.020138721 -s 2 -d 1 -p tcp -e 40 -c 2 -a 0 -i 3 -k RTR 
- -t 39.020138721 -s 2 -d 1 -p tcp -e 40 -c 2 -a 0 -i 3 -k RTR
h -t 39.020138721 -s 2 -d 1 -p tcp -e 40 -c 2 -a 0 -i 3 -k RTR
r -t 39.022364965 -s 1 -d 1 -p tcp -e 40 -c 2 -a 0 -i 3 -k AGT
+ -t 39.022364965 -s 1 -d -1 -p ack -e 40 -c 2 -a 0 -i 4 -k AGT 
- -t 39.022364965 -s 1 -d -1 -p ack -e 40 -c 2 -a 0 -i 4 -k AGT
h -t 39.022364965 -s 1 -d -1 -p ack -e 40 -c 2 -a 0 -i 4 -k AGT
+ -t 39.022364965 -s 1 -d 2 -p ack -e 40 -c 2 -a 0 -i 4 -k RTR 
- -t 39.022364965 -s 1 -d 2 -p ack -e 40 -c 2 -a 0 -i 4 -k RTR
h -t 39.022364965 -s 1 -d 2 -p ack -e 40 -c 2 -a 0 -i 4 -k RTR
+ -t 39.024771210 -s 2 -d 0 -p ack -e 40 -c 2 -a 0 -i 4 -k RTR 
- -t 39.024771210 -s 2 -d 0 -p ack -e 40 -c 2 -a 0 -i 4 -k RTR
h -t 39.024771210 -s 2 -d 0 -p ack -e 40 -c 2 -a 0 -i 4 -k RTR
r -t 39.027137134 -s 0 -d 0 -p ack -e 40 -c 2 -a 0 -i 4 -k AGT
+ -t 39.027137134 -s 0 -d -1 -p tcp -e 1040 -c 2 -a 0 -i 5 -k AGT 
- -t 39.027137134 -s 0 -d -1 -p tcp -e 1040 -c 2 -a 0 -i 5 -k AGT
h -t 39.027137134 -s 0 -d -1 -p tcp -e 1040 -c 2 -a 0 -i 5 -k AGT
+ -t 39.027137134 -s 0 -d 2 -p tcp -e 1040 -c 2 -a 0 -i 5 -k RTR 
- -t 39.027137134 -s 0 -d 2 -p tcp -e 1040 -c 2 -a 0 -i 5 -k RTR
h -t 39.027137134 -s 0 -d 2 -p tcp -e 1040 -c 2 -a 0 -i 5 -k RTR
+ -t 39.037003059 -s 2 -d 1 -p tcp -e 1040 -c 2 -a 0 -i 5 -k RTR 
- -t 39.037003059 -s 2 -d 1 -p tcp -e 1040 -c 2 -a 0 -i 5 -k RTR
h -t 39.037003059 -s 2 -d 1 -p tcp -e 1040 -c 2 -a 0 -i 5 -k RTR
r -t 39.047109302 -s 1 -d 1 -p tcp -e 1040 -c 2 -a 0 -i 5 -k AGT
+ -t 39.047109302 -s 1 -d -1 -p ack -e 40 -c 2 -a 0 -i 6 -k AGT 
- -t 39.047109302 -s 1 -d -1 -p ack -e 40 -c 2 -a 0 -i 6 -k AGT
h -t 39.047109302 -s 1 -d -1 -p ack -e 40 -c 2 -a 0 -i 6 -k AGT
+ -t 39.047109302 -s 1 -d 2 -p ack -e 40 -c 2 -a 0 -i 6 -k RTR 
- -t 39.047109302 -s 1 -d 2 -p ack -e 40 -c 2 -a 0 -i 6 -k RTR
h -t 39.047109302 -s 1 -d 2 -p ack -e 40 -c 2 -a 0 -i 6 -k RTR
+ -t 39.049075546 -s 2 -d 0 -p ack -e 40 -c 2 -a 0 -i 6 -k RTR 
- -t 39.049075546 -s 2 -d 0 -p ack -e 40 -c 2 -a 0 -i 6 -k RTR
h -t 39.049075546 -s 2 -d 0 -p ack -e 40 -c 2 -a 0 -i 6 -k RTR
r -t 39.051181470 -s 0 -d 0 -p ack -e 40 -c 2 -a 0 -i 6 -k AGT
+ -t 39.051181470 -s 0 -d -1 -p tcp -e 1040 -c 2 -a 0 -i 7 -k AGT 
- -t 39.051181470 -s 0 -d -1 -p tcp -e 1040 -c 2 -a 0 -i 7 -k AGT
h -t 39.051181470 -s 0 -d -1 -p tcp -e 1040 -c 2 -a 0 -i 7 -k AGT
+ -t 39.051181470 -s 0 -d -1 -p tcp -e 1040 -c 2 -a 0 -i 8 -k AGT 
- -t 39.051181470 -s 0 -d -1 -p tcp -e 1040 -c 2 -a 0 -i 8 -k AGT
h -t 39.051181470 -s 0 -d -1 -p tcp -e 1040 -c 2 -a 0 -i 8 -k AGT
+ -t 39.051181470 -s 0 -d 2 -p tcp -e 1040 -c 2 -a 0 -i 7 -k RTR 
- -t 39.051181470 -s 0 -d 2 -p tcp -e 1040 -c 2 -a 0 -i 7 -k RTR
h -t 39.051181470 -s 0 -d 2 -p tcp -e 1040 -c 2 -a 0 -i 7 -k RTR
+ -t 39.051181470 -s 0 -d 2 -p tcp -e 1040 -c 2 -a 0 -i 8 -k RTR 
- -t 39.051181470 -s 0 -d 2 -p tcp -e 1040 -c 2 -a 0 -i 8 -k RTR
h -t 39.051181470 -s 0 -d 2 -p tcp -e 1040 -c 2 -a 0 -i 8 -k RTR
+ -t 39.061107393 -s 2 -d 1 -p tcp -e 1040 -c 2 -a 0 -i 7 -k RTR 
- -t 39.061107393 -s 2 -d 1 -p tcp -e 1040 -c 2 -a 0 -i 7 -k RTR
h -t 39.061107393 -s 2 -d 1 -p tcp -e 1040 -c 2 -a 0 -i 7 -k RTR
+ -t 39.071153958 -s 2 -d 1 -p tcp -e 1040 -c 2 -a 0 -i 8 -k RTR 
- -t 39.071153958 -s 2 -d 1 -p tcp -e 1040 -c 2 -a 0 -i 8 -k RTR
h -t 39.071153958 -s 2 -d 1 -p tcp -e 1040 -c 2 -a 0 -i 8 -k RTR
r -t 39.081200200 -s 1 -d 1 -p tcp -e 1040 -c 2 -a 0 -i 7 -k AGT
+ -t 39.081200200 -s 1 -d -1 -p ack -e 40 -c 2 -a 0 -i 9 -k AGT 
- -t 39.081200200 -s 1 -d -1 -p ack -e 40 -c 2 -a 0 -i 9 -k AGT
h -t 39.081200200 -s 1 -d -1 -p ack -e 40 -c 2 -a 0 -i 9 -k AGT
+ -t 39.081200200 -s 1 -d 2 -p ack -e 40 -c 2 -a 0 -i 9 -k RTR 
- -t 39.081200200 -s 1 -d 2 -p ack -e 40 -c 2 -a 0 -i 9 -k RTR
h -t 39.081200200 -s 1 -d 2 -p ack -e 40 -c 2 -a 0 -i 9 -k RTR
r -t 39.091087189 -s 1 -d 1 -p tcp -e 1040 -c 2 -a 0 -i 8 -k AGT
+ -t 39.091087189 -s 1 -d -1 -p ack -e 40 -c 2 -a 0 -i 10 -k AGT 
- -t 39.091087189 -s 1 -d -1 -p ack -e 40 -c 2 -a 0 -i 10 -k AGT
h -t 39.091087189 -s 1 -d -1 -p ack -e 40 -c 2 -a 0 -i 10 -k AGT
+ -t 39.091087189 -s 1 -d 2 -p ack -e 40 -c 2 -a 0 -i 10 -k RTR 
- -t 39.091087189 -s 1 -d 2 -p ack -e 40 -c 2 -a 0 -i 10 -k RTR
h -t 39.091087189 -s 1 -d 2 -p ack -e 40 -c 2 -a 0 -i 10 -k RTR
+ -t 39.093433430 -s 2 -d 0 -p ack -e 40 -c 2 -a 0 -i 9 -k RTR 
- -t 39.093433430 -s 2 -d 0 -p ack -e 40 -c 2 -a 0 -i 9 -k RTR
h -t 39.093433430 -s 2 -d 0 -p ack -e 40 -c 2 -a 0 -i 9 -k RTR
r -t 39.095599352 -s 0 -d 0 -p ack -e 40 -c 2 -a 0 -i 9 -k AGT
+ -t 39.095599352 -s 0 -d -1 -p tcp -e 1040 -c 2 -a 0 -i 11 -k AGT 
- -t 39.095599352 -s 0 -d -1 -p tcp -e 1040 -c 2 -a 0 -i 11 -k AGT
h -t 39.095599352 -s 0 -d -1 -p tcp -e 1040 -c 2 -a 0 -i 11 -k AGT
+ -t 39.095599352 -s 0 -d 2 -p tcp -e 1040 -c 2 -a 0 -i 11 -k RTR 
- -t 39.095599352 -s 0 -d 2 -p tcp -e 1040 -c 2 -a 0 -i 11 -k RTR
h -t 39.095599352 -s 0 -d 2 -p tcp -e 1040 -c 2 -a 0 -i 11 -k RTR
+ -t 39.105705275 -s 2 -d 1 -p tcp -e 1040 -c 2 -a 0 -i 11 -k RTR 
- -t 39.105705275 -s 2 -d 1 -p tcp -e 1040 -c 2 -a 0 -i 11 -k RTR
h -t 39.105705275 -s 2 -d 1 -p tcp -e 1040 -c 2 -a 0 -i 11 -k RTR
+ -t 39.107762118 -s 2 -d 0 -p ack -e 40 -c 2 -a 0 -i 10 -k RTR 
- -t 39.107762118 -s 2 -d 0 -p ack -e 40 -c 2 -a 0 -i 10 -k RTR
h -t 39.107762118 -s 2 -d 0 -p ack -e 40 -c 2 -a 0 -i 10 -k RTR
r -t 39.117648359 -s 1 -d 1 -p tcp -e 1040 -c 2 -a 0 -i 11 -k AGT
+ -t 39.117648359 -s 1 -d -1 -p ack -e 40 -c 2 -a 0 -i 12 -k AGT 
- -t 39.117648359 -s 1 -d -1 -p ack -e 40 -c 2 -a 0 -i 12 -k AGT
h -t 39.117648359 -s 1 -d -1 -p ack -e 40 -c 2 -a 0 -i 12 -k AGT
+ -t 39.117648359 -s 1 -d 2 -p ack -e 40 -c 2 -a 0 -i 12 -k RTR 
- -t 39.117648359 -s 1 -d 2 -p ack -e 40 -c 2 -a 0 -i 12 -k RTR
h -t 39.117648359 -s 1 -d 2 -p ack -e 40 -c 2 -a 0 -i 12 -k RTR
+ -t 39.119694598 -s 2 -d 0 -p ack -e 40 -c 2 -a 0 -i 12 -k RTR 
- -t 39.119694598 -s 2 -d 0 -p ack -e 40 -c 2 -a 0 -i 12 -k RTR
h -t 39.119694598 -s 2 -d 0 -p ack -e 40 -c 2 -a 0 -i 12 -k RTR
r -t 39.121640520 -s 0 -d 0 -p ack -e 40 -c 2 -a 0 -i 10 -k AGT
+ -t 39.121640520 -s 0 -d -1 -p tcp -e 1040 -c 2 -a 0 -i 13 -k AGT 
- -t 39.121640520 -s 0 -d -1 -p tcp -e 1040 -c 2 -a 0 -i 13 -k AGT
h -t 39.121640520 -s 0 -d -1 -p tcp -e 1040 -c 2 -a 0 -i 13 -k AGT
+ -t 39.121640520 -s 0 -d 2 -p tcp -e 1040 -c 2 -a 0 -i 13 -k RTR 
- -t 39.121640520 -s 0 -d 2 -p tcp -e 1040 -c 2 -a 0 -i 13 -k RTR
h -t 39.121640520 -s 0 -d 2 -p tcp -e 1040 -c 2 -a 0 -i 13 -k RTR
+ -t 39.131666442 -s 2 -d 1 -p tcp -e 1040 -c 2 -a 0 -i 13 -k RTR 
- -t 39.131666442 -s 2 -d 1 -p tcp -e 1040 -c 2 -a 0 -i 13 -k RTR
h -t 39.131666442 -s 2 -d 1 -p tcp -e 1040 -c 2 -a 0 -i 13 -k RTR
r -t 39.133532363 -s 0 -d 0 -p ack -e 40 -c 2 -a 0 -i 12 -k AGT
+ -t 39.133532363 -s 0 -d -1 -p tcp -e 1040 -c 2 -a 0 -i 14 -k AGT 
- -t 39.133532363 -s 0 -d -1 -p tcp -e 1040 -c 2 -a 0 -i 14 -k AGT
h -t 39.133532363 -s 0 -d -1 -p tcp -e 1040 -c 2 -a 0 -i 14 -k AGT
+ -t 39.133532363 -s 0 -d -1 -p tcp -e 1040 -c 2 -a 0 -i 15 -k AGT 
- -t 39.133532363 -s 0 -d -1 -p tcp -e 1040 -c 2 -a 0 -i 15 -k AGT
h -t 39.133532363 -s 0 -d -1 -p tcp -e 1040 -c 2 -a 0 -i 15 -k AGT
+ -t 39.133532363 -s 0 -d 2 -p tcp -e 1040 -c 2 -a 0 -i 14 -k RTR 
- -t 39.133532363 -s 0 -d 2 -p tcp -e 1040 -c 2 -a 0 -i 14 -k RTR
h -t 39.133532363 -s 0 -d 2 -p tcp -e 1040 -c 2 -a 0 -i 14 -k RTR
+ -t 39.133532363 -s 0 -d 2 -p tcp -e 1040 -c 2 -a 0 -i 15 -k RTR 
- -t 39.133532363 -s 0 -d 2 -p tcp -e 1040 -c 2 -a 0 -i 15 -k RTR
h -t 39.133532363 -s 0 -d 2 -p tcp -e 1040 -c 2 -a 0 -i 15 -k RTR
+ -t 39.143418285 -s 2 -d 1 -p tcp -e 1040 -c 2 -a 0 -i 14 -k RTR 
- -t 39.143418285 -s 2 -d 1 -p tcp -e 1040 -c 2 -a 0 -i 14 -k RTR
h -t 39.143418285 -s 2 -d 1 -p tcp -e 1040 -c 2 -a 0 -i 14 -k RTR
+ -t 39.153244846 -s 2 -d 1 -p tcp -e 1040 -c 2 -a 0 -i 15 -k RTR 
- -t 39.153244846 -s 2 -d 1 -p tcp -e 1040 -c 2 -a 0 -i 15 -k RTR
h -t 39.153244846 -s 2 -d 1 -p tcp -e 1040 -c 2 -a 0 -i 15 -k RTR
r -t 39.163331084 -s 1 -d 1 -p tcp -e 1040 -c 2 -a 0 -i 13 -k AGT
+ -t 39.163331084 -s 1 -d -1 -p ack -e 40 -c 2 -a 0 -i 16 -k AGT 
- -t 39.163331084 -s 1 -d -1 -p ack -e 40 -c 2 -a 0 -i 16 -k AGT
h -t 39.163331084 -s 1 -d -1 -p ack -e 40 -c 2 -a 0 -i 16 -k AGT
+ -t 39.163331084 -s 1 -d 2 -p ack -e 40 -c 2 -a 0 -i 16 -k RTR 
- -t 39.163331084 -s 1 -d 2 -p ack -e 40 -c 2 -a 0 -i 16 -k RTR
h -t 39.163331084 -s 1 -d 2 -p ack -e 40 -c 2 -a 0 -i 16 -k RTR
r -t 39.173438068 -s 1 -d 1 -p tcp -e 1040 -c 2 -a 0 -i 14 -k AGT
+ -t 39.173438068 -s 1 -d -1 -p ack -e 40 -c 2 -a 0 -i 17 -k AGT 
- -t 39.173438068 -s 1 -d -1 -p ack -e 40 -c 2 -a 0 -i 17 -k AGT
h -t 39.173438068 -s 1 -d -1 -p ack -e 40 -c 2 -a 0 -i 17 -k AGT
+ -t 39.173438068 -s 1 -d 2 -p ack -e 40 -c 2 -a 0 -i 17 -k RTR 
- -t 39.173438068 -s 1 -d 2 -p ack -e 40 -c 2 -a 0 -i 17 -k RTR
h -t 39.173438068 -s 1 -d 2 -p ack -e 40 -c 2 -a 0 -i 17 -k RTR
+ -t 39.175284305 -s 2 -d 0 -p ack -e 40 -c 2 -a 0 -i 16 -k RTR 
- -t 39.175284305 -s 2 -d 0 -p ack -e 40 -c 2 -a 0 -i 16 -k RTR
h -t 39.175284305 -s 2 -d 0 -p ack -e 40 -c 2 -a 0 -i 16 -k RTR
r -t 39.185130542 -s 1 -d 1 -p tcp -e 1040 -c 2 -a 0 -i 15 -k AGT
+ -t 39.185130542 -s 1 -d -1 -p ack -e 40 -c 2 -a 0 -i 18 -k AGT 
- -t 39.185130542 -s 1 -d -1 -p ack -e 40 -c 2 -a 0 -i 18 -k AGT
h -t 39.185130542 -s 1 -d -1 -p ack -e 40 -c 2 -a 0 -i 18 -k AGT
+ -t 39.185130542 -s 1 -d 2 -p ack -e 40 -c 2 -a 0 -i 18 -k RTR 
- -t 39.185130542 -s 1 -d 2 -p ack -e 40 -c 2 -a 0 -i 18 -k RTR
h -t 39.185130542 -s 1 -d 2 -p ack -e 40 -c 2 -a 0 -i 18 -k RTR
r -t 39.187197207 -s 0 -d 0 -p ack -e 40 -c 2 -a 0 -i 16 -k AGT
+ -t 39.187197207 -s 0 -d -1 -p tcp -e 1040 -c 2 -a 0 -i 19 -k AGT 
- -t 39.187197207 -s 0 -d -1 -p tcp -e 1040 -c 2 -a 0 -i 19 -k AGT
h -t 39.187197207 -s 0 -d -1 -p tcp -e 1040 -c 2 -a 0 -i 19 -k AGT
+ -t 39.187197207 -s 0 -d 2 -p tcp -e 1040 -c 2 -a 0 -i 19 -k RTR 
- -t 39.187197207 -s 0 -d 2 -p tcp -e 1040 -c 2 -a 0 -i 19 -k RTR
h -t 39.187197207 -s 0 -d 2 -p tcp -e 1040 -c 2 -a 0 -i 19 -k RTR
+ -t 39.197143127 -s 2 -d 1 -p tcp -e 1040 -c 2 -a 0 -i 19 -k RTR 
- -t 39.197143127 -s 2 -d 1 -p tcp -e 1040 -c 2 -a 0 -i 19 -k RTR
h -t 39.197143127 -s 2 -d 1 -p tcp -e 1040 -c 2 -a 0 -i 19 -k RTR
r -t 39.207169363 -s 1 -d 1 -p tcp -e 1040 -c 2 -a 0 -i 19 -k AGT
+ -t 39.207169363 -s 1 -d -1 -p ack -e 40 -c 2 -a 0 -i 20 -k AGT 
- -t 39.207169363 -s 1 -d -1 -p ack -e 40 -c 2 -a 0 -i 20 -k AGT
h -t 39.207169363 -s 1 -d -1 -p ack -e 40 -c 2 -a 0 -i 20 -k AGT
+ -t 39.207169363 -s 1 -d 2 -p ack -e 40 -c 2 -a 0 -i 20 -k RTR 
- -t 39.207169363 -s 1 -d 2 -p ack -e 40 -c 2 -a 0 -i 20 -k RTR
h -t 39.207169363 -s 1 -d 2 -p ack -e 40 -c 2 -a 0 -i 20 -k RTR
+ -t 39.209095598 -s 2 -d 0 -p ack -e 40 -c 2 -a 0 -i 17 -k RTR 
- -t 39.209095598 -s 2 -d 0 -p ack -e 40 -c 2 -a 0 -i 17 -k RTR
h -t 39.209095598 -s 2 -d 0 -p ack -e 40 -c 2 -a 0 -i 17 -k RTR
+ -t 39.211042579 -s 2 -d 0 -p ack -e 40 -c 2 -a 0 -i 18 -k RTR 
- -t 39.211042579 -s 2 -d 0 -p ack -e 40 -c 2 -a 0 -i 18 -k RTR
h -t 39.211042579 -s 2 -d 0 -p ack -e 40 -c 2 -a 0 -i 18 -k RTR
+ -t 39.213069559 -s 2 -d 0 -p ack -e 40 -c 2 -a 0 -i 20 -k RTR 
- -t 39.213069559 -s 2 -d 0 -p ack -e 40 -c 2 -a 0 -i 20 -k RTR
h -t 39.213069559 -s 2 -d 0 -p ack -e 40 -c 2 -a 0 -i 20 -k RTR
r -t 39.214955478 -s 0 -d 0 -p ack -e 40 -c 2 -a 0 -i 17 -k AGT
+ -t 39.214955478 -s 0 -d -1 -p tcp -e 1040 -c 2 -a 0 -i 21 -k AGT 
- -t 39.214955478 -s 0 -d -1 -p tcp -e 1040 -c 2 -a 0 -i 21 -k AGT
h -t 39.214955478 -s 0 -d -1 -p tcp -e 1040 -c 2 -a 0 -i 21 -k AGT
+ -t 39.214955478 -s 0 -d 2 -p tcp -e 1040 -c 2 -a 0 -i 21 -k RTR 
- -t 39.214955478 -s 0 -d 2 -p tcp -e 1040 -c 2 -a 0 -i 21 -k RTR
h -t 39.214955478 -s 0 -d 2 -p tcp -e 1040 -c 2 -a 0 -i 21 -k RTR
+ -t 39.224861397 -s 2 -d 1 -p tcp -e 1040 -c 2 -a 0 -i 21 -k RTR 
- -t 39.224861397 -s 2 -d 1 -p tcp -e 1040 -c 2 -a 0 -i 21 -k RTR
h -t 39.224861397 -s 2 -d 1 -p tcp -e 1040 -c 2 -a 0 -i 21 -k RTR
r -t 39.226887316 -s 0 -d 0 -p ack -e 40 -c 2 -a 0 -i 18 -k AGT
+ -t 39.226887316 -s 0 -d -1 -p tcp -e 1040 -c 2 -a 0 -i 22 -k AGT 
- -t 39.226887316 -s 0 -d -1 -p tcp -e 1040 -c 2 -a 0 -i 22 -k AGT
h -t 39.226887316 -s 0 -d -1 -p tcp -e 1040 -c 2 -a 0 -i 22 -k AGT
+ -t 39.226887316 -s 0 -d -1 -p tcp -e 1040 -c 2 -a 0 -i 23 -k AGT 
- -t 39.226887316 -s 0 -d -1 -p tcp -e 1040 -c 2 -a 0 -i 23 -k AGT
h -t 39.226887316 -s 0 -d -1 -p tcp -e 1040 -c 2 -a 0 -i 23 -k AGT
+ -t 39.226887316 -s 0 -d 2 -p tcp -e 1040 -c 2 -a 0 -i 22 -k RTR 
- -t 39.226887316 -s 0 -d 2 -p tcp -e 1040 -c 2 -a 0 -i 22 -k RTR
h -t 39.226887316 -s 0 -d 2 -p tcp -e 1040 -c 2 -a 0 -i 22 -k RTR
+ -t 39.226887316 -s 0 -d 2 -p tcp -e 1040 -c 2 -a 0 -i 23 -k RTR 
- -t 39.226887316 -s 0 -d 2 -p tcp -e 1040 -c 2 -a 0 -i 23 -k RTR
h -t 39.226887316 -s 0 -d 2 -p tcp -e 1040 -c 2 -a 0 -i 23 -k RTR
+ -t 39.236733235 -s 2 -d 1 -p tcp -e 1040 -c 2 -a 0 -i 22 -k RTR 
- -t 39.236733235 -s 2 -d 1 -p tcp -e 1040 -c 2 -a 0 -i 22 -k RTR
h -t 39.236733235 -s 2 -d 1 -p tcp -e 1040 -c 2 -a 0 -i 22 -k RTR
r -t 39.238619153 -s 0 -d 0 -p ack -e 40 -c 2 -a 0 -i 20 -k AGT
+ -t 39.238619153 -s 0 -d -1 -p tcp -e 1040 -c 2 -a 0 -i 24 -k AGT 
- -t 39.238619153 -s 0 -d -1 -p tcp -e 1040 -c 2 -a 0 -i 24 -k AGT
h -t 39.238619153 -s 0 -d -1 -p tcp -e 1040 -c 2 -a 0 -i 24 -k AGT
+ -t 39.238619153 -s 0 -d 2 -p tcp -e 1040 -c 2 -a 0 -i 24 -k RTR 
- -t 39.238619153 -s 0 -d 2 -p tcp -e 1040 -c 2 -a 0 -i 24 -k RTR
h -t 39.238619153 -s 0 -d 2 -p tcp -e 1040 -c 2 -a 0 -i 24 -k RTR
+ -t 39.248745072 -s 2 -d 1 -p tcp -e 1040 -c 2 -a 0 -i 23 -k RTR 
- -t 39.248745072 -s 2 -d 1 -p tcp -e 1040 -c 2 -a 0 -i 23 -k RTR
h -t 39.248745072 -s 2 -d 1 -p tcp -e 1040 -c 2 -a 0 -i 23 -k RTR
+ -t 39.258691629 -s 2 -d 1 -p tcp -e 1040 -c 2 -a 0 -i 24 -k RTR 
- -t 39.258691629 -s 2 -d 1 -p tcp -e 1040 -c 2 -a 0 -i 24 -k RTR
h -t 39.258691629 -s 2 -d 1 -p tcp -e 1040 -c 2 -a 0 -i 24 -k RTR
r -t 39.268717862 -s 1 -d 1 -p tcp -e 1040 -c 2 -a 0 -i 21 -k AGT
+ -t 39.268717862 -s 1 -d -1 -p ack -e 40 -c 2 -a 0 -i 25 -k AGT 
- -t 39.268717862 -s 1 -d -1 -p ack -e 40 -c 2 -a 0 -i 25 -k AGT
h -t 39.268717862 -s 1 -d -1 -p ack -e 40 -c 2 -a 0 -i 25 -k AGT
+ -t 39.268717862 -s 1 -d 2 -p ack -e 40 -c 2 -a 0 -i 25 -k RTR 
- -t 39.268717862 -s 1 -d 2 -p ack -e 40 -c 2 -a 0 -i 25 -k RTR
h -t 39.268717862 -s 1 -d 2 -p ack -e 40 -c 2 -a 0 -i 25 -k RTR
r -t 39.278664839 -s 1 -d 1 -p tcp -e 1040 -c 2 -a 0 -i 22 -k AGT
+ -t 39.278664839 -s 1 -d -1 -p ack -e 40 -c 2 -a 0 -i 26 -k AGT 
- -t 39.278664839 -s 1 -d -1 -p ack -e 40 -c 2 -a 0 -i 26 -k AGT
h -t 39.278664839 -s 1 -d -1 -p ack -e 40 -c 2 -a 0 -i 26 -k AGT
+ -t 39.278664839 -s 1 -d 2 -p ack -e 40 -c 2 -a 0 -i 26 -k RTR 
- -t 39.278664839 -s 1 -d 2 -p ack -e 40 -c 2 -a 0 -i 26 -k RTR
h -t 39.278664839 -s 1 -d 2 -p ack -e 40 -c 2 -a 0 -i 26 -k RTR
+ -t 39.280951071 -s 2 -d 0 -p ack -e 40 -c 2 -a 0 -i 25 -k RTR 
- -t 39.280951071 -s 2 -d 0 -p ack -e 40 -c 2 -a 0 -i 25 -k RTR
h -t 39.280951071 -s 2 -d 0 -p ack -e 40 -c 2 -a 0 -i 25 -k RTR
r -t 39.290937302 -s 1 -d 1 -p tcp -e 1040 -c 2 -a 0 -i 23 -k AGT
+ -t 39.290937302 -s 1 -d -1 -p ack -e 40 -c 2 -a 0 -i 27 -k AGT 
- -t 39.290937302 -s 1 -d -1 -p ack -e 40 -c 2 -a 0 -i 27 -k AGT
h -t 39.290937302 -s 1 -d -1 -p ack -e 40 -c 2 -a 0 -i 27 -k AGT
+ -t 39.290937302 -s 1 -d 2 -p ack -e 40 -c 2 -a 0 -i 27 -k RTR 
- -t 39.290937302 -s 1 -d 2 -p ack -e 40 -c 2 -a 0 -i 27 -k RTR
h -t 39.290937302 -s 1 -d 2 -p ack -e 40 -c 2 -a 0 -i 27 -k RTR
+ -t 39.293063534 -s 2 -d 0 -p ack -e 40 -c 2 -a 0 -i 26 -k RTR 
- -t 39.293063534 -s 2 -d 0 -p ack -e 40 -c 2 -a 0 -i 26 -k RTR
h -t 39.293063534 -s 2 -d 0 -p ack -e 40 -c 2 -a 0 -i 26 -k RTR
r -t 39.303149765 -s 1 -d 1 -p tcp -e 1040 -c 2 -a 0 -i 24 -k AGT
+ -t 39.303149765 -s 1 -d -1 -p ack -e 40 -c 2 -a 0 -i 28 -k AGT 
- -t 39.303149765 -s 1 -d -1 -p ack -e 40 -c 2 -a 0 -i 28 -k AGT
h -t 39.303149765 -s 1 -d -1 -p ack -e 40 -c 2 -a 0 -i 28 -k AGT
+ -t 39.303149765 -s 1 -d 2 -p ack -e 40 -c 2 -a 0 -i 28 -k RTR 
- -t 39.303149765 -s 1 -d 2 -p ack -e 40 -c 2 -a 0 -i 28 -k RTR
h -t 39.303149765 -s 1 -d 2 -p ack -e 40 -c 2 -a 0 -i 28 -k RTR
+ -t 39.305035995 -s 2 -d 0 -p ack -e 40 -c 2 -a 0 -i 27 -k RTR 
- -t 39.305035995 -s 2 -d 0 -p ack -e 40 -c 2 -a 0 -i 27 -k RTR
h -t 39.305035995 -s 2 -d 0 -p ack -e 40 -c 2 -a 0 -i 27 -k RTR
r -t 39.307121912 -s 0 -d 0 -p ack -e 40 -c 2 -a 0 -i 25 -k AGT
+ -t 39.307121912 -s 0 -d -1 -p tcp -e 1040 -c 2 -a 0 -i 29 -k AGT 
- -t 39.307121912 -s 0 -d -1 -p tcp -e 1040 -c 2 -a 0 -i 29 -k AGT
h -t 39.307121912 -s 0 -d -1 -p tcp -e 1040 -c 2 -a 0 -i 29 -k AGT
+ -t 39.307121912 -s 0 -d 2 -p tcp -e 1040 -c 2 -a 0 -i 29 -k RTR 
- -t 39.307121912 -s 0 -d 2 -p tcp -e 1040 -c 2 -a 0 -i 29 -k RTR
h -t 39.307121912 -s 0 -d 2 -p tcp -e 1040 -c 2 -a 0 -i 29 -k RTR
r -t 39.308988467 -s 0 -d 0 -p ack -e 40 -c 2 -a 0 -i 26 -k AGT
+ -t 39.308988467 -s 0 -d -1 -p tcp -e 1040 -c 2 -a 0 -i 30 -k AGT 
- -t 39.308988467 -s 0 -d -1 -p tcp -e 1040 -c 2 -a 0 -i 30 -k AGT
h -t 39.308988467 -s 0 -d -1 -p tcp -e 1040 -c 2 -a 0 -i 30 -k AGT
+ -t 39.308988467 -s 0 -d 2 -p tcp -e 1040 -c 2 -a 0 -i 30 -k RTR 
- -t 39.308988467 -s 0 -d 2 -p tcp -e 1040 -c 2 -a 0 -i 30 -k RTR
h -t 39.308988467 -s 0 -d 2 -p tcp -e 1040 -c 2 -a 0 -i 30 -k RTR
+ -t 39.319114384 -s 2 -d 1 -p tcp -e 1040 -c 2 -a 0 -i 29 -k RTR 
- -t 39.319114384 -s 2 -d 1 -p tcp -e 1040 -c 2 -a 0 -i 29 -k RTR
h -t 39.319114384 -s 2 -d 1 -p tcp -e 1040 -c 2 -a 0 -i 29 -k RTR
+ -t 39.321051214 -s 2 -d 0 -p ack -e 40 -c 2 -a 0 -i 28 -k RTR 
- -t 39.321051214 -s 2 -d 0 -p ack -e 40 -c 2 -a 0 -i 28 -k RTR
h -t 39.321051214 -s 2 -d 0 -p ack -e 40 -c 2 -a 0 -i 28 -k RTR
+ -t 39.331047626 -s 2 -d 1 -p tcp -e 1040 -c 2 -a 0 -i 30 -k RTR 
- -t 39.331047626 -s 2 -d 1 -p tcp -e 1040 -c 2 -a 0 -i 30 -k RTR
h -t 39.331047626 -s 2 -d 1 -p tcp -e 1040 -c 2 -a 0 -i 30 -k RTR
r -t 39.332913542 -s 0 -d 0 -p ack -e 40 -c 2 -a 0 -i 27 -k AGT
+ -t 39.332913542 -s 0 -d -1 -p tcp -e 1040 -c 2 -a 0 -i 31 -k AGT 
- -t 39.332913542 -s 0 -d -1 -p tcp -e 1040 -c 2 -a 0 -i 31 -k AGT
h -t 39.332913542 -s 0 -d -1 -p tcp -e 1040 -c 2 -a 0 -i 31 -k AGT
+ -t 39.332913542 -s 0 -d 2 -p tcp -e 1040 -c 2 -a 0 -i 31 -k RTR 
- -t 39.332913542 -s 0 -d 2 -p tcp -e 1040 -c 2 -a 0 -i 31 -k RTR
h -t 39.332913542 -s 0 -d 2 -p tcp -e 1040 -c 2 -a 0 -i 31 -k RTR
+ -t 39.342879458 -s 2 -d 1 -p tcp -e 1040 -c 2 -a 0 -i 31 -k RTR 
- -t 39.342879458 -s 2 -d 1 -p tcp -e 1040 -c 2 -a 0 -i 31 -k RTR
h -t 39.342879458 -s 2 -d 1 -p tcp -e 1040 -c 2 -a 0 -i 31 -k RTR
r -t 39.353025686 -s 1 -d 1 -p tcp -e 1040 -c 2 -a 0 -i 29 -k AGT
+ -t 39.353025686 -s 1 -d -1 -p ack -e 40 -c 2 -a 0 -i 32 -k AGT 
- -t 39.353025686 -s 1 -d -1 -p ack -e 40 -c 2 -a 0 -i 32 -k AGT
h -t 39.353025686 -s 1 -d -1 -p ack -e 40 -c 2 -a 0 -i 32 -k AGT
+ -t 39.353025686 -s 1 -d 2 -p ack -e 40 -c 2 -a 0 -i 32 -k RTR 
- -t 39.353025686 -s 1 -d 2 -p ack -e 40 -c 2 -a 0 -i 32 -k RTR
h -t 39.353025686 -s 1 -d 2 -p ack -e 40 -c 2 -a 0 -i 32 -k RTR
+ -t 39.354971914 -s 2 -d 0 -p ack -e 40 -c 2 -a 0 -i 32 -k RTR 
- -t 39.354971914 -s 2 -d 0 -p ack -e 40 -c 2 -a 0 -i 32 -k RTR
h -t 39.354971914 -s 2 -d 0 -p ack -e 40 -c 2 -a 0 -i 32 -k RTR
r -t 39.356857830 -s 0 -d 0 -p ack -e 40 -c 2 -a 0 -i 28 -k AGT
+ -t 39.356857830 -s 0 -d -1 -p tcp -e 1040 -c 2 -a 0 -i 33 -k AGT 
- -t 39.356857830 -s 0 -d -1 -p tcp -e 1040 -c 2 -a 0 -i 33 -k AGT
h -t 39.356857830 -s 0 -d -1 -p tcp -e 1040 -c 2 -a 0 -i 33 -k AGT
+ -t 39.356857830 -s 0 -d -1 -p tcp -e 1040 -c 2 -a 0 -i 34 -k AGT 
- -t 39.356857830 -s 0 -d -1 -p tcp -e 1040 -c 2 -a 0 -i 34 -k AGT
h -t 39.356857830 -s 0 -d -1 -p tcp -e 1040 -c 2 -a 0 -i 34 -k AGT
+ -t 39.356857830 -s 0 -d 2 -p tcp -e 1040 -c 2 -a 0 -i 33 -k RTR 
- -t 39.356857830 -s 0 -d 2 -p tcp -e 1040 -c 2 -a 0 -i 33 -k RTR
h -t 39.356857830 -s 0 -d 2 -p tcp -e 1040 -c 2 -a 0 -i 33 -k RTR
+ -t 39.356857830 -s 0 -d 2 -p tcp -e 1040 -c 2 -a 0 -i 34 -k RTR 
- -t 39.356857830 -s 0 -d 2 -p tcp -e 1040 -c 2 -a 0 -i 34 -k RTR
h -t 39.356857830 -s 0 -d 2 -p tcp -e 1040 -c 2 -a 0 -i 34 -k RTR
r -t 39.366684696 -s 1 -d 1 -p tcp -e 1040 -c 2 -a 0 -i 30 -k AGT
+ -t 39.366684696 -s 1 -d -1 -p ack -e 40 -c 2 -a 0 -i 35 -k AGT 
- -t 39.366684696 -s 1 -d -1 -p ack -e 40 -c 2 -a 0 -i 35 -k AGT
h -t 39.366684696 -s 1 -d -1 -p ack -e 40 -c 2 -a 0 -i 35 -k AGT
+ -t 39.366684696 -s 1 -d 2 -p ack -e 40 -c 2 -a 0 -i 35 -k RTR 
- -t 39.366684696 -s 1 -d 2 -p ack -e 40 -c 2 -a 0 -i 35 -k RTR
h -t 39.366684696 -s 1 -d 2 -p ack -e 40 -c 2 -a 0 -i 35 -k RTR
r -t 39.376651666 -s 1 -d 1 -p tcp -e 1040 -c 2 -a 0 -i 31 -k AGT
+ -t 39.376651666 -s 1 -d -1 -p ack -e 40 -c 2 -a 0 -i 36 -k AGT 
- -t 39.376651666 -s 1 -d -1 -p ack -e 40 -c 2 -a 0 -i 36 -k AGT
h -t 39.376651666 -s 1 -d -1 -p ack -e 40 -c 2 -a 0 -i 36 -k AGT
+ -t 39.376651666 -s 1 -d 2 -p ack -e 40 -c 2 -a 0 -i 36 -k RTR 
- -t 39.376651666 -s 1 -d 2 -p ack -e 40 -c 2 -a 0 -i 36 -k RTR
h -t 39.376651666 -s 1 -d 2 -p ack -e 40 -c 2 -a 0 -i 36 -k RTR
+ -t 39.378517893 -s 2 -d 0 -p ack -e 40 -c 2 -a 0 -i 35 -k RTR 
- -t 39.378517893 -s 2 -d 0 -p ack -e 40 -c 2 -a 0 -i 35 -k RTR
h -t 39.378517893 -s 2 -d 0 -p ack -e 40 -c 2 -a 0 -i 35 -k RTR
+ -t 39.388494303 -s 2 -d 1 -p tcp -e 1040 -c 2 -a 0 -i 33 -k RTR 
- -t 39.388494303 -s 2 -d 1 -p tcp -e 1040 -c 2 -a 0 -i 33 -k RTR
h -t 39.388494303 -s 2 -d 1 -p tcp -e 1040 -c 2 -a 0 -i 33 -k RTR
r -t 39.390520217 -s 0 -d 0 -p ack -e 40 -c 2 -a 0 -i 32 -k AGT
+ -t 39.390520217 -s 0 -d -1 -p tcp -e 1040 -c 2 -a 0 -i 37 -k AGT 
- -t 39.390520217 -s 0 -d -1 -p tcp -e 1040 -c 2 -a 0 -i 37 -k AGT
h -t 39.390520217 -s 0 -d -1 -p tcp -e 1040 -c 2 -a 0 -i 37 -k AGT
+ -t 39.390520217 -s 0 -d 2 -p tcp -e 1040 -c 2 -a 0 -i 37 -k RTR 
- -t 39.390520217 -s 0 -d 2 -p tcp -e 1040 -c 2 -a 0 -i 37 -k RTR
h -t 39.390520217 -s 0 -d 2 -p tcp -e 1040 -c 2 -a 0 -i 37 -k RTR
+ -t 39.400586131 -s 2 -d 1 -p tcp -e 1040 -c 2 -a 0 -i 34 -k RTR 
- -t 39.400586131 -s 2 -d 1 -p tcp -e 1040 -c 2 -a 0 -i 34 -k RTR
h -t 39.400586131 -s 2 -d 1 -p tcp -e 1040 -c 2 -a 0 -i 34 -k RTR
+ -t 39.402502957 -s 2 -d 0 -p ack -e 40 -c 2 -a 0 -i 36 -k RTR 
- -t 39.402502957 -s 2 -d 0 -p ack -e 40 -c 2 -a 0 -i 36 -k RTR
h -t 39.402502957 -s 2 -d 0 -p ack -e 40 -c 2 -a 0 -i 36 -k RTR
r -t 39.404528870 -s 0 -d 0 -p ack -e 40 -c 2 -a 0 -i 35 -k AGT
+ -t 39.404528870 -s 0 -d -1 -p tcp -e 1040 -c 2 -a 0 -i 38 -k AGT 
- -t 39.404528870 -s 0 -d -1 -p tcp -e 1040 -c 2 -a 0 -i 38 -k AGT
h -t 39.404528870 -s 0 -d -1 -p tcp -e 1040 -c 2 -a 0 -i 38 -k AGT
+ -t 39.404528870 -s 0 -d 2 -p tcp -e 1040 -c 2 -a 0 -i 38 -k RTR 
- -t 39.404528870 -s 0 -d 2 -p tcp -e 1040 -c 2 -a 0 -i 38 -k RTR
h -t 39.404528870 -s 0 -d 2 -p tcp -e 1040 -c 2 -a 0 -i 38 -k RTR
r -t 39.414375734 -s 1 -d 1 -p tcp -e 1040 -c 2 -a 0 -i 33 -k AGT
+ -t 39.414375734 -s 1 -d -1 -p ack -e 40 -c 2 -a 0 -i 39 -k AGT 
- -t 39.414375734 -s 1 -d -1 -p ack -e 40 -c 2 -a 0 -i 39 -k AGT
h -t 39.414375734 -s 1 -d -1 -p ack -e 40 -c 2 -a 0 -i 39 -k AGT
+ -t 39.414375734 -s 1 -d 2 -p ack -e 40 -c 2 -a 0 -i 39 -k RTR 
- -t 39.414375734 -s 1 -d 2 -p ack -e 40 -c 2 -a 0 -i 39 -k RTR
h -t 39.414375734 -s 1 -d 2 -p ack -e 40 -c 2 -a 0 -i 39 -k RTR
r -t 39.424302701 -s 1 -d 1 -p tcp -e 1040 -c 2 -a 0 -i 34 -k AGT
+ -t 39.424302701 -s 1 -d -1 -p ack -e 40 -c 2 -a 0 -i 40 -k AGT 
- -t 39.424302701 -s 1 -d -1 -p ack -e 40 -c 2 -a 0 -i 40 -k AGT
h -t 39.424302701 -s 1 -d -1 -p ack -e 40 -c 2 -a 0 -i 40 -k AGT
+ -t 39.424302701 -s 1 -d 2 -p ack -e 40 -c 2 -a 0 -i 40 -k RTR 
- -t 39.424302701 -s 1 -d 2 -p ack -e 40 -c 2 -a 0 -i 40 -k RTR
h -t 39.424302701 -s 1 -d 2 -p ack -e 40 -c 2 -a 0 -i 40 -k RTR
r -t 39.426129356 -s 0 -d 0 -p ack -e 40 -c 2 -a 0 -i 36 -k AGT
+ -t 39.426129356 -s 0 -d -1 -p tcp -e 1040 -c 2 -a 0 -i 41 -k AGT 
- -t 39.426129356 -s 0 -d -1 -p tcp -e 1040 -c 2 -a 0 -i 41 -k AGT
h -t 39.426129356 -s 0 -d -1 -p tcp -e 1040 -c 2 -a 0 -i 41 -k AGT
+ -t 39.426129356 -s 0 -d 2 -p tcp -e 1040 -c 2 -a 0 -i 41 -k RTR 
- -t 39.426129356 -s 0 -d 2 -p tcp -e 1040 -c 2 -a 0 -i 41 -k RTR
h -t 39.426129356 -s 0 -d 2 -p tcp -e 1040 -c 2 -a 0 -i 41 -k RTR
+ -t 39.436035269 -s 2 -d 1 -p tcp -e 1040 -c 2 -a 0 -i 37 -k RTR 
- -t 39.436035269 -s 2 -d 1 -p tcp -e 1040 -c 2 -a 0 -i 37 -k RTR
h -t 39.436035269 -s 2 -d 1 -p tcp -e 1040 -c 2 -a 0 -i 37 -k RTR
+ -t 39.438072092 -s 2 -d 0 -p ack -e 40 -c 2 -a 0 -i 39 -k RTR 
- -t 39.438072092 -s 2 -d 0 -p ack -e 40 -c 2 -a 0 -i 39 -k RTR
h -t 39.438072092 -s 2 -d 0 -p ack -e 40 -c 2 -a 0 -i 39 -k RTR
r -t 39.448218316 -s 1 -d 1 -p tcp -e 1040 -c 2 -a 0 -i 37 -k AGT
+ -t 39.448218316 -s 1 -d -1 -p ack -e 40 -c 2 -a 0 -i 42 -k AGT 
- -t 39.448218316 -s 1 -d -1 -p ack -e 40 -c 2 -a 0 -i 42 -k AGT
h -t 39.448218316 -s 1 -d -1 -p ack -e 40 -c 2 -a 0 -i 42 -k AGT
+ -t 39.448218316 -s 1 -d 2 -p ack -e 40 -c 2 -a 0 -i 42 -k RTR 
- -t 39.448218316 -s 1 -d 2 -p ack -e 40 -c 2 -a 0 -i 42 -k RTR
h -t 39.448218316 -s 1 -d 2 -p ack -e 40 -c 2 -a 0 -i 42 -k RTR
r -t 39.450064970 -s 0 -d 0 -p ack -e 40 -c 2 -a 0 -i 39 -k AGT
+ -t 39.450064970 -s 0 -d -1 -p tcp -e 1040 -c 2 -a 0 -i 43 -k AGT 
- -t 39.450064970 -s 0 -d -1 -p tcp -e 1040 -c 2 -a 0 -i 43 -k AGT
h -t 39.450064970 -s 0 -d -1 -p tcp -e 1040 -c 2 -a 0 -i 43 -k AGT
+ -t 39.450064970 -s 0 -d 2 -p tcp -e 1040 -c 2 -a 0 -i 43 -k RTR 
- -t 39.450064970 -s 0 -d 2 -p tcp -e 1040 -c 2 -a 0 -i 43 -k RTR
h -t 39.450064970 -s 0 -d 2 -p tcp -e 1040 -c 2 -a 0 -i 43 -k RTR
+ -t 39.460030882 -s 2 -d 1 -p tcp -e 1040 -c 2 -a 0 -i 38 -k RTR 
- -t 39.460030882 -s 2 -d 1 -p tcp -e 1040 -c 2 -a 0 -i 38 -k RTR
h -t 39.460030882 -s 2 -d 1 -p tcp -e 1040 -c 2 -a 0 -i 38 -k RTR
r -t 39.469917105 -s 1 -d 1 -p tcp -e 1040 -c 2 -a 0 -i 38 -k AGT
+ -t 39.469917105 -s 1 -d -1 -p ack -e 40 -c 2 -a 0 -i 44 -k AGT 
- -t 39.469917105 -s 1 -d -1 -p ack -e 40 -c 2 -a 0 -i 44 -k AGT
h -t 39.469917105 -s 1 -d -1 -p ack -e 40 -c 2 -a 0 -i 44 -k AGT
+ -t 39.469917105 -s 1 -d 2 -p ack -e 40 -c 2 -a 0 -i 44 -k RTR 
- -t 39.469917105 -s 1 -d 2 -p ack -e 40 -c 2 -a 0 -i 44 -k RTR
h -t 39.469917105 -s 1 -d 2 -p ack -e 40 -c 2 -a 0 -i 44 -k RTR
+ -t 39.471843328 -s 2 -d 0 -p ack -e 40 -c 2 -a 0 -i 40 -k RTR 
- -t 39.471843328 -s 2 -d 0 -p ack -e 40 -c 2 -a 0 -i 40 -k RTR
h -t 39.471843328 -s 2 -d 0 -p ack -e 40 -c 2 -a 0 -i 40 -k RTR
r -t 39.473689239 -s 0 -d 0 -p ack -e 40 -c 2 -a 0 -i 40 -k AGT
+ -t 39.473689239 -s 0 -d -1 -p tcp -e 1040 -c 2 -a 0 -i 45 -k AGT 
- -t 39.473689239 -s 0 -d -1 -p tcp -e 1040 -c 2 -a 0 -i 45 -k AGT
h -t 39.473689239 -s 0 -d -1 -p tcp -e 1040 -c 2 -a 0 -i 45 -k AGT