M 10.00000 0 (5.00, 5.00, 0.00), (250.00, 250.00), 3.00
s 10.000000000 _0_ AGT  --- 0 tcp 40 [0 0 0 0] ------- [0:0 1:0 32 0] [0 0] 0 0
r 10.000000000 _0_ RTR  --- 0 tcp 40 [0 0 0 0] ------- [0:0 1:0 32 0] [0 0] 0 0
s 10.000000000 _0_ RTR  --- 0 AODV 48 [0 0 0 0] ------- [0:255 -1:255 30 0] [0x2 1 1 [1 0] [0 4]] (REQUEST)
s 12.000000000 _0_ RTR  --- 0 AODV 48 [0 0 0 0] ------- [0:255 -1:255 30 0] [0x2 1 2 [1 0] [0 6]] (REQUEST)
s 13.000000000 _0_ AGT  --- 1 tcp 40 [0 0 0 0] ------- [0:0 1:0 32 0] [0 0] 0 0
r 13.000000000 _0_ RTR  --- 1 tcp 40 [0 0 0 0] ------- [0:0 1:0 32 0] [0 0] 0 0
M 15.00000 1 (490.00, 285.00, 0.00), (45.00, 285.00), 5.00
s 16.000000000 _0_ RTR  --- 0 AODV 48 [0 0 0 0] ------- [0:255 -1:255 30 0] [0x2 1 3 [1 0] [0 8]] (REQUEST)
s 19.000000000 _0_ AGT  --- 2 tcp 40 [0 0 0 0] ------- [0:0 1:0 32 0] [0 0] 0 0
r 19.000000000 _0_ RTR  --- 2 tcp 40 [0 0 0 0] ------- [0:0 1:0 32 0] [0 0] 0 0
s 21.500000000 _0_ RTR  --- 0 AODV 48 [0 0 0 0] ------- [0:255 -1:255 30 0] [0x2 1 4 [1 0] [0 10]] (REQUEST)
r 21.501148809 _2_ RTR  --- 0 AODV 48 [0 ffffffff 0 800] ------- [0:255 -1:255 30 0] [0x2 1 4 [1 0] [0 10]] (REQUEST)
s 21.507537460 _2_ RTR  --- 0 AODV 48 [0 ffffffff 0 800] ------- [2:255 -1:255 29 0] [0x2 2 4 [1 0] [0 10]] (REQUEST)
r 21.508746269 _0_ RTR  --- 0 AODV 48 [0 ffffffff 2 800] ------- [2:255 -1:255 29 0] [0x2 2 4 [1 0] [0 10]] (REQUEST)
D 29.000000000 _0_ RTR NRTE 0 tcp 40 [0 0 0 0] ------- [0:0 1:0 30 0] [0 0] 0 0
D 29.000000000 _0_ RTR NRTE 1 tcp 40 [0 0 0 0] ------- [0:0 1:0 30 0] [0 0] 0 0
D 29.000000000 _0_ RTR NRTE 2 tcp 40 [0 0 0 0] ------- [0:0 1:0 30 0] [0 0] 0 0
s 31.000000000 _0_ AGT  --- 3 tcp 40 [0 0 0 0] ------- [0:0 1:0 32 0] [0 0] 0 0
r 31.000000000 _0_ RTR  --- 3 tcp 40 [0 0 0 0] ------- [0:0 1:0 32 0] [0 0] 0 0
s 39.000000000 _0_ RTR  --- 0 AODV 48 [0 0 0 0] ------- [0:255 -1:255 30 0] [0x2 1 5 [1 0] [0 12]] (REQUEST)
r 39.000988642 _2_ RTR  --- 0 AODV 48 [0 ffffffff 0 800] ------- [0:255 -1:255 30 0] [0x2 1 5 [1 0] [0 12]] (REQUEST)
s 39.007389318 _2_ RTR  --- 0 AODV 48 [0 ffffffff 0 800] ------- [2:255 -1:255 29 0] [0x2 2 5 [1 0] [0 12]] (REQUEST)
r 39.008697960 _0_ RTR  --- 0 AODV 48 [0 ffffffff 2 800] ------- [2:255 -1:255 29 0] [0x2 2 5 [1 0] [0 12]] (REQUEST)
r 39.008698067 _1_ RTR  --- 0 AODV 48 [0 ffffffff 2 800] ------- [2:255 -1:255 29 0] [0x2 2 5 [1 0] [0 12]] (REQUEST)
s 39.008698067 _1_ RTR  --- 0 AODV 44 [0 0 0 0] ------- [1:255 0:255 30 2] [0x4 1 [1 4] 10.000000] (REPLY)
r 39.013381305 _2_ RTR  --- 0 AODV 44 [13a 2 1 800] ------- [1:255 0:255 30 2] [0x4 1 [1 4] 10.000000] (REPLY)
f 39.013381305 _2_ RTR  --- 0 AODV 44 [13a 2 1 800] ------- [1:255 0:255 29 0] [0x4 2 [1 4] 10.000000] (REPLY)
r 39.018252796 _0_ RTR  --- 0 AODV 44 [13a 0 2 800] ------- [1:255 0:255 29 0] [0x4 2 [1 4] 10.000000] (REPLY)
s 39.018252796 _0_ RTR  --- 3 tcp 40 [0 0 0 0] ------- [0:0 1:0 30 2] [0 0] 0 0
r 39.020138721 _2_ RTR  --- 3 tcp 40 [13a 2 0 800] ------- [0:0 1:0 30 2] [0 0] 1 0
f 39.020138721 _2_ RTR  --- 3 tcp 40 [13a 2 0 800] ------- [0:0 1:0 29 1] [0 0] 1 0
r 39.022364965 _1_ AGT  --- 3 tcp 40 [13a 1 2 800] ------- [0:0 1:0 29 1] [0 0] 2 0
s 39.022364965 _1_ AGT  --- 4 ack 40 [0 0 0 0] ------- [1:0 0:0 32 0] [0 0] 0 0
r 39.022364965 _1_ RTR  --- 4 ack 40 [0 0 0 0] ------- [1:0 0:0 32 0] [0 0] 0 0
s 39.022364965 _1_ RTR  --- 4 ack 40 [0 0 0 0] ------- [1:0 0:0 30 2] [0 0] 0 0
r 39.024771210 _2_ RTR  --- 4 ack 40 [13a 2 1 800] ------- [1:0 0:0 30 2] [0 0] 1 0
f 39.024771210 _2_ RTR  --- 4 ack 40 [13a 2 1 800] ------- [1:0 0:0 29 0] [0 0] 1 0
r 39.027137134 _0_ AGT  --- 4 ack 40 [13a 0 2 800] ------- [1:0 0:0 29 0] [0 0] 2 0
s 39.027137134 _0_ AGT  --- 5 tcp 1040 [0 0 0 0] ------- [0:0 1:0 32 0] [1 0] 0 0
r 39.027137134 _0_ RTR  --- 5 tcp 1040 [0 0 0 0] ------- [0:0 1:0 32 0] [1 0] 0 0
s 39.027137134 _0_ RTR  --- 5 tcp 1040 [0 0 0 0] ------- [0:0 1:0 30 2] [1 0] 0 0
r 39.037003059 _2_ RTR  --- 5 tcp 1040 [13a 2 0 800] ------- [0:0 1:0 30 2] [1 0] 1 0
f 39.037003059 _2_ RTR  --- 5 tcp 1040 [13a 2 0 800] ------- [0:0 1:0 29 1] [1 0] 1 0
r 39.047109302 _1_ AGT  --- 5 tcp 1040 [13a 1 2 800] ------- [0:0 1:0 29 1] [1 0] 2 0
s 39.047109302 _1_ AGT  --- 6 ack 40 [0 0 0 0] ------- [1:0 0:0 32 0] [1 0] 0 0
r 39.047109302 _1_ RTR  --- 6 ack 40 [0 0 0 0] ------- [1:0 0:0 32 0] [1 0] 0 0
s 39.047109302 _1_ RTR  --- 6 ack 40 [0 0 0 0] ------- [1:0 0:0 30 2] [1 0] 0 0
r 39.049075546 _2_ RTR  --- 6 ack 40 [13a 2 1 800] ------- [1:0 0:0 30 2] [1 0] 1 0
f 39.049075546 _2_ RTR  --- 6 ack 40 [13a 2 1 800] ------- [1:0 0:0 29 0] [1 0] 1 0
r 39.051181470 _0_ AGT  --- 6 ack 40 [13a 0 2 800] ------- [1:0 0:0 29 0] [1 0] 2 0
s 39.051181470 _0_ AGT  --- 7 tcp 1040 [0 0 0 0] ------- [0:0 1:0 32 0] [2 0] 0 0
r 39.051181470 _0_ RTR  --- 7 tcp 1040 [0 0 0 0] ------- [0:0 1:0 32 0] [2 0] 0 0
s 39.051181470 _0_ AGT  --- 8 tcp 1040 [0 0 0 0] ------- [0:0 1:0 32 0] [3 0] 0 0
r 39.051181470 _0_ RTR  --- 8 tcp 1040 [0 0 0 0] ------- [0:0 1:0 32 0] [3 0] 0 0
s 39.051181470 _0_ RTR  --- 7 tcp 1040 [0 0 0 0] ------- [0:0 1:0 30 2] [2 0] 0 0
s 39.051181470 _0_ RTR  --- 8 tcp 1040 [0 0 0 0] ------- [0:0 1:0 30 2] [3 0] 0 0
r 39.061107393 _2_ RTR  --- 7 tcp 1040 [13a 2 0 800] ------- [0:0 1:0 30 2] [2 0] 1 0
f 39.061107393 _2_ RTR  --- 7 tcp 1040 [13a 2 0 800] ------- [0:0 1:0 29 1] [2 0] 1 0
r 39.071153958 _2_ RTR  --- 8 tcp 1040 [13a 2 0 800] ------- [0:0 1:0 30 2] [3 0] 1 0
f 39.071153958 _2_ RTR  --- 8 tcp 1040 [13a 2 0 800] ------- [0:0 1:0 29 1] [3 0] 1 0
r 39.081200200 _1_ AGT  --- 7 tcp 1040 [13a 1 2 800] ------- [0:0 1:0 29 1] [2 0] 2 0
s 39.081200200 _1_ AGT  --- 9 ack 40 [0 0 0 0] ------- [1:0 0:0 32 0] [2 0] 0 0
r 39.081200200 _1_ RTR  --- 9 ack 40 [0 0 0 0] ------- [1:0 0:0 32 0] [2 0] 0 0
s 39.081200200 _1_ RTR  --- 9 ack 40 [0 0 0 0] ------- [1:0 0:0 30 2] [2 0] 0 0
r 39.091087189 _1_ AGT  --- 8 tcp 1040 [13a 1 2 800] ------- [0:0 1:0 29 1] [3 0] 2 0
s 39.091087189 _1_ AGT  --- 10 ack 40 [0 0 0 0] ------- [1:0 0:0 32 0] [3 0] 0 0
r 39.091087189 _1_ RTR  --- 10 ack 40 [0 0 0 0] ------- [1:0 0:0 32 0] [3 0] 0 0
s 39.091087189 _1_ RTR  --- 10 ack 40 [0 0 0 0] ------- [1:0 0:0 30 2] [3 0] 0 0
r 39.093433430 _2_ RTR  --- 9 ack 40 [13a 2 1 800] ------- [1:0 0:0 30 2] [2 0] 1 0
f 39.093433430 _2_ RTR  --- 9 ack 40 [13a 2 1 800] ------- [1:0 0:0 29 0] [2 0] 1 0
r 39.095599352 _0_ AGT  --- 9 ack 40 [13a 0 2 800] ------- [1:0 0:0 29 0] [2 0] 2 0
s 39.095599352 _0_ AGT  --- 11 tcp 1040 [0 0 0 0] ------- [0:0 1:0 32 0] [4 0] 0 0
r 39.095599352 _0_ RTR  --- 11 tcp 1040 [0 0 0 0] ------- [0:0 1:0 32 0] [4 0] 0 0
s 39.095599352 _0_ RTR  --- 11 tcp 1040 [0 0 0 0] ------- [0:0 1:0 30 2] [4 0] 0 0
r 39.105705275 _2_ RTR  --- 11 tcp 1040 [13a 2 0 800] ------- [0:0 1:0 30 2] [4 0] 1 0
f 39.105705275 _2_ RTR  --- 11 tcp 1040 [13a 2 0 800] ------- [0:0 1:0 29 1] [4 0] 1 0
r 39.107762118 _2_ RTR  --- 10 ack 40 [13a 2 1 800] ------- [1:0 0:0 30 2] [3 0] 1 0
f 39.107762118 _2_ RTR  --- 10 ack 40 [13a 2 1 800] ------- [1:0 0:0 29 0] [3 0] 1 0
r 39.117648359 _1_ AGT  --- 11 tcp 1040 [13a 1 2 800] ------- [0:0 1:0 29 1] [4 0] 2 0
s 39.117648359 _1_ AGT  --- 12 ack 40 [0 0 0 0] ------- [1:0 0:0 32 0] [4 0] 0 0
r 39.117648359 _1_ RTR  --- 12 ack 40 [0 0 0 0] ------- [1:0 0:0 32 0] [4 0] 0 0
s 39.117648359 _1_ RTR  --- 12 ack 40 [0 0 0 0] ------- [1:0 0:0 30 2] [4 0] 0 0
r 39.119694598 _2_ RTR  --- 12 ack 40 [13a 2 1 800] ------- [1:0 0:0 30 2] [4 0] 1 0
f 39.119694598 _2_ RTR  --- 12 ack 40 [13a 2 1 800] ------- [1:0 0:0 29 0] [4 0] 1 0
r 39.121640520 _0_ AGT  --- 10 ack 40 [13a 0 2 800] ------- [1:0 0:0 29 0] [3 0] 2 0
s 39.121640520 _0_ AGT  --- 13 tcp 1040 [0 0 0 0] ------- [0:0 1:0 32 0] [5 0] 0 0
r 39.121640520 _0_ RTR  --- 13 tcp 1040 [0 0 0 0] ------- [0:0 1:0 32 0] [5 0] 0 0
s 39.121640520 _0_ RTR  --- 13 tcp 1040 [0 0 0 0] ------- [0:0 1:0 30 2] [5 0] 0 0
r 39.131666442 _2_ RTR  --- 13 tcp 1040 [13a 2 0 800] ------- [0:0 1:0 30 2] [5 0] 1 0
f 39.131666442 _2_ RTR  --- 13 tcp 1040 [13a 2 0 800] ------- [0:0 1:0 29 1] [5 0] 1 0
r 39.133532363 _0_ AGT  --- 12 ack 40 [13a 0 2 800] ------- [1:0 0:0 29 0] [4 0] 2 0
s 39.133532363 _0_ AGT  --- 14 tcp 1040 [0 0 0 0] ------- [0:0 1:0 32 0] [6 0] 0 0
r 39.133532363 _0_ RTR  --- 14 tcp 1040 [0 0 0 0] ------- [0:0 1:0 32 0] [6 0] 0 0
s 39.133532363 _0_ AGT  --- 15 tcp 1040 [0 0 0 0] ------- [0:0 1:0 32 0] [7 0] 0 0
r 39.133532363 _0_ RTR  --- 15 tcp 1040 [0 0 0 0] ------- [0:0 1:0 32 0] [7 0] 0 0
s 39.133532363 _0_ RTR  --- 14 tcp 1040 [0 0 0 0] ------- [0:0 1:0 30 2] [6 0] 0 0
s 39.133532363 _0_ RTR  --- 15 tcp 1040 [0 0 0 0] ------- [0:0 1:0 30 2] [7 0] 0 0
r 39.143418285 _2_ RTR  --- 14 tcp 1040 [13a 2 0 800] ------- [0:0 1:0 30 2] [6 0] 1 0
f 39.143418285 _2_ RTR  --- 14 tcp 1040 [13a 2 0 800] ------- [0:0 1:0 29 1] [6 0] 1 0
r 39.153244846 _2_ RTR  --- 15 tcp 1040 [13a 2 0 800] ------- [0:0 1:0 30 2] [7 0] 1 0
f 39.153244846 _2_ RTR  --- 15 tcp 1040 [13a 2 0 800] ------- [0:0 1:0 29 1] [7 0] 1 0
r 39.163331084 _1_ AGT  --- 13 tcp 1040 [13a 1 2 800] ------- [0:0 1:0 29 1] [5 0] 2 0
s 39.163331084 _1_ AGT  --- 16 ack 40 [0 0 0 0] ------- [1:0 0:0 32 0] [5 0] 0 0
r 39.163331084 _1_ RTR  --- 16 ack 40 [0 0 0 0] ------- [1:0 0:0 32 0] [5 0] 0 0
s 39.163331084 _1_ RTR  --- 16 ack 40 [0 0 0 0] ------- [1:0 0:0 30 2] [5 0] 0 0
r 39.173438068 _1_ AGT  --- 14 tcp 1040 [13a 1 2 800] ------- [0:0 1:0 29 1] [6 0] 2 0
s 39.173438068 _1_ AGT  --- 17 ack 40 [0 0 0 0] ------- [1:0 0:0 32 0] [6 0] 0 0
r 39.173438068 _1_ RTR  --- 17 ack 40 [0 0 0 0] ------- [1:0 0:0 32 0] [6 0] 0 0
s 39.173438068 _1_ RTR  --- 17 ack 40 [0 0 0 0] ------- [1:0 0:0 30 2] [6 0] 0 0
r 39.175284305 _2_ RTR  --- 16 ack 40 [13a 2 1 800] ------- [1:0 0:0 30 2] [5 0] 1 0
f 39.175284305 _2_ RTR  --- 16 ack 40 [13a 2 1 800] ------- [1:0 0:0 29 0] [5 0] 1 0
r 39.185130542 _1_ AGT  --- 15 tcp 1040 [13a 1 2 800] ------- [0:0 1:0 29 1] [7 0] 2 0
s 39.185130542 _1_ AGT  --- 18 ack 40 [0 0 0 0] ------- [1:0 0:0 32 0] [7 0] 0 0
r 39.185130542 _1_ RTR  --- 18 ack 40 [0 0 0 0] ------- [1:0 0:0 32 0] [7 0] 0 0
s 39.185130542 _1_ RTR  --- 18 ack 40 [0 0 0 0] ------- [1:0 0:0 30 2] [7 0] 0 0
r 39.187197207 _0_ AGT  --- 16 ack 40 [13a 0 2 800] ------- [1:0 0:0 29 0] [5 0] 2 0
s 39.187197207 _0_ AGT  --- 19 tcp 1040 [0 0 0 0] ------- [0:0 1:0 32 0] [8 0] 0 0
r 39.187197207 _0_ RTR  --- 19 tcp 1040 [0 0 0 0] ------- [0:0 1:0 32 0] [8 0] 0 0
s 39.187197207 _0_ RTR  --- 19 tcp 1040 [0 0 0 0] ------- [0:0 1:0 30 2] [8 0] 0 0
r 39.197143127 _2_ RTR  --- 19 tcp 1040 [13a 2 0 800] ------- [0:0 1:0 30 2] [8 0] 1 0
f 39.197143127 _2_ RTR  --- 19 tcp 1040 [13a 2 0 800] ------- [0:0 1:0 29 1] [8 0] 1 0
r 39.207169363 _1_ AGT  --- 19 tcp 1040 [13a 1 2 800] ------- [0:0 1:0 29 1] [8 0] 2 0
s 39.207169363 _1_ AGT  --- 20 ack 40 [0 0 0 0] ------- [1:0 0:0 32 0] [8 0] 0 0
r 39.207169363 _1_ RTR  --- 20 ack 40 [0 0 0 0] ------- [1:0 0:0 32 0] [8 0] 0 0
s 39.207169363 _1_ RTR  --- 20 ack 40 [0 0 0 0] ------- [1:0 0:0 30 2] [8 0] 0 0
r 39.209095598 _2_ RTR  --- 17 ack 40 [13a 2 1 800] ------- [1:0 0:0 30 2] [6 0] 1 0
f 39.209095598 _2_ RTR  --- 17 ack 40 [13a 2 1 800] ------- [1:0 0:0 29 0] [6 0] 1 0
r 39.211042579 _2_ RTR  --- 18 ack 40 [13a 2 1 800] ------- [1:0 0:0 30 2] [7 0] 1 0
f 39.211042579 _2_ RTR  --- 18 ack 40 [13a 2 1 800] ------- [1:0 0:0 29 0] [7 0] 1 0
r 39.213069559 _2_ RTR  --- 20 ack 40 [13a 2 1 800] ------- [1:0 0:0 30 2] [8 0] 1 0
f 39.213069559 _2_ RTR  --- 20 ack 40 [13a 2 1 800] ------- [1:0 0:0 29 0] [8 0] 1 0
r 39.214955478 _0_ AGT  --- 17 ack 40 [13a 0 2 800] ------- [1:0 0:0 29 0] [6 0] 2 0
s 39.214955478 _0_ AGT  --- 21 tcp 1040 [0 0 0 0] ------- [0:0 1:0 32 0] [9 0] 0 0
r 39.214955478 _0_ RTR  --- 21 tcp 1040 [0 0 0 0] ------- [0:0 1:0 32 0] [9 0] 0 0
s 39.214955478 _0_ RTR  --- 21 tcp 1040 [0 0 0 0] ------- [0:0 1:0 30 2] [9 0] 0 0
r 39.224861397 _2_ RTR  --- 21 tcp 1040 [13a 2 0 800] ------- [0:0 1:0 30 2] [9 0] 1 0
f 39.224861397 _2_ RTR  --- 21 tcp 1040 [13a 2 0 800] ------- [0:0 1:0 29 1] [9 0] 1 0
r 39.226887316 _0_ AGT  --- 18 ack 40 [13a 0 2 800] ------- [1:0 0:0 29 0] [7 0] 2 0
s 39.226887316 _0_ AGT  --- 22 tcp 1040 [0 0 0 0] ------- [0:0 1:0 32 0] [10 0] 0 0
r 39.226887316 _0_ RTR  --- 22 tcp 1040 [0 0 0 0] ------- [0:0 1:0 32 0] [10 0] 0 0
s 39.226887316 _0_ AGT  --- 23 tcp 1040 [0 0 0 0] ------- [0:0 1:0 32 0] [11 0] 0 0
r 39.226887316 _0_ RTR  --- 23 tcp 1040 [0 0 0 0] ------- [0:0 1:0 32 0] [11 0] 0 0
s 39.226887316 _0_ RTR  --- 22 tcp 1040 [0 0 0 0] ------- [0:0 1:0 30 2] [10 0] 0 0
s 39.226887316 _0_ RTR  --- 23 tcp 1040 [0 0 0 0] ------- [0:0 1:0 30 2] [11 0] 0 0
r 39.236733235 _2_ RTR  --- 22 tcp 1040 [13a 2 0 800] ------- [0:0 1:0 30 2] [10 0] 1 0
f 39.236733235 _2_ RTR  --- 22 tcp 1040 [13a 2 0 800] ------- [0:0 1:0 29 1] [10 0] 1 0
r 39.238619153 _0_ AGT  --- 20 ack 40 [13a 0 2 800] ------- [1:0 0:0 29 0] [8 0] 2 0
s 39.238619153 _0_ AGT  --- 24 tcp 1040 [0 0 0 0] ------- [0:0 1:0 32 0] [12 0] 0 0
r 39.238619153 _0_ RTR  --- 24 tcp 1040 [0 0 0 0] ------- [0:0 1:0 32 0] [12 0] 0 0
s 39.238619153 _0_ RTR  --- 24 tcp 1040 [0 0 0 0] ------- [0:0 1:0 30 2] [12 0] 0 0
r 39.248745072 _2_ RTR  --- 23 tcp 1040 [13a 2 0 800] ------- [0:0 1:0 30 2] [11 0] 1 0
f 39.248745072 _2_ RTR  --- 23 tcp 1040 [13a 2 0 800] ------- [0:0 1:0 29 1] [11 0] 1 0
r 39.258691629 _2_ RTR  --- 24 tcp 1040 [13a 2 0 800] ------- [0:0 1:0 30 2] [12 0] 1 0
f 39.258691629 _2_ RTR  --- 24 tcp 1040 [13a 2 0 800] ------- [0:0 1:0 29 1] [12 0] 1 0
r 39.268717862 _1_ AGT  --- 21 tcp 1040 [13a 1 2 800] ------- [0:0 1:0 29 1] [9 0] 2 0
s 39.268717862 _1_ AGT  --- 25 ack 40 [0 0 0 0] ------- [1:0 0:0 32 0] [9 0] 0 0
r 39.268717862 _1_ RTR  --- 25 ack 40 [0 0 0 0] ------- [1:0 0:0 32 0] [9 0] 0 0
s 39.268717862 _1_ RTR  --- 25 ack 40 [0 0 0 0] ------- [1:0 0:0 30 2] [9 0] 0 0
r 39.278664839 _1_ AGT  --- 22 tcp 1040 [13a 1 2 800] ------- [0:0 1:0 29 1] [10 0] 2 0
s 39.278664839 _1_ AGT  --- 26 ack 40 [0 0 0 0] ------- [1:0 0:0 32 0] [10 0] 0 0
r 39.278664839 _1_ RTR  --- 26 ack 40 [0 0 0 0] ------- [1:0 0:0 32 0] [10 0] 0 0
s 39.278664839 _1_ RTR  --- 26 ack 40 [0 0 0 0] ------- [1:0 0:0 30 2] [10 0] 0 0
r 39.280951071 _2_ RTR  --- 25 ack 40 [13a 2 1 800] ------- [1:0 0:0 30 2] [9 0] 1 0
f 39.280951071 _2_ RTR  --- 25 ack 40 [13a 2 1 800] ------- [1:0 0:0 29 0] [9 0] 1 0
r 39.290937302 _1_ AGT  --- 23 tcp 1040 [13a 1 2 800] ------- [0:0 1:0 29 1] [11 0] 2 0
s 39.290937302 _1_ AGT  --- 27 ack 40 [0 0 0 0] ------- [1:0 0:0 32 0] [11 0] 0 0
r 39.290937302 _1_ RTR  --- 27 ack 40 [0 0 0 0] ------- [1:0 0:0 32 0] [11 0] 0 0
s 39.290937302 _1_ RTR  --- 27 ack 40 [0 0 0 0] ------- [1:0 0:0 30 2] [11 0] 0 0
r 39.293063534 _2_ RTR  --- 26 ack 40 [13a 2 1 800] ------- [1:0 0:0 30 2] [10 0] 1 0
f 39.293063534 _2_ RTR  --- 26 ack 40 [13a 2 1 800] ------- [1:0 0:0 29 0] [10 0] 1 0
r 39.303149765 _1_ AGT  --- 24 tcp 1040 [13a 1 2 800] ------- [0:0 1:0 29 1] [12 0] 2 0
s 39.303149765 _1_ AGT  --- 28 ack 40 [0 0 0 0] ------- [1:0 0:0 32 0] [12 0] 0 0
r 39.303149765 _1_ RTR  --- 28 ack 40 [0 0 0 0] ------- [1:0 0:0 32 0] [12 0] 0 0
s 39.303149765 _1_ RTR  --- 28 ack 40 [0 0 0 0] ------- [1:0 0:0 30 2] [12 0] 0 0
r 39.305035995 _2_ RTR  --- 27 ack 40 [13a 2 1 800] ------- [1:0 0:0 30 2] [11 0] 1 0
f 39.305035995 _2_ RTR  --- 27 ack 40 [13a 2 1 800] ------- [1:0 0:0 29 0] [11 0] 1 0
r 39.307121912 _0_ AGT  --- 25 ack 40 [13a 0 2 800] ------- [1:0 0:0 29 0] [9 0] 2 0
s 39.307121912 _0_ AGT  --- 29 tcp 1040 [0 0 0 0] ------- [0:0 1:0 32 0] [13 0] 0 0
r 39.307121912 _0_ RTR  --- 29 tcp 1040 [0 0 0 0] ------- [0:0 1:0 32 0] [13 0] 0 0
s 39.307121912 _0_ RTR  --- 29 tcp 1040 [0 0 0 0] ------- [0:0 1:0 30 2] [13 0] 0 0
r 39.308988467 _0_ AGT  --- 26 ack 40 [13a 0 2 800] ------- [1:0 0:0 29 0] [10 0] 2 0
s 39.308988467 _0_ AGT  --- 30 tcp 1040 [0 0 0 0] ------- [0:0 1:0 32 0] [14 0] 0 0
r 39.308988467 _0_ RTR  --- 30 tcp 1040 [0 0 0 0] ------- [0:0 1:0 32 0] [14 0] 0 0
s 39.308988467 _0_ RTR  --- 30 tcp 1040 [0 0 0 0] ------- [0:0 1:0 30 2] [14 0] 0 0
r 39.319114384 _2_ RTR  --- 29 tcp 1040 [13a 2 0 800] ------- [0:0 1:0 30 2] [13 0] 1 0
f 39.319114384 _2_ RTR  --- 29 tcp 1040 [13a 2 0 800] ------- [0:0 1:0 29 1] [13 0] 1 0
r 39.321051214 _2_ RTR  --- 28 ack 40 [13a 2 1 800] ------- [1:0 0:0 30 2] [12 0] 1 0
f 39.321051214 _2_ RTR  --- 28 ack 40 [13a 2 1 800] ------- [1:0 0:0 29 0] [12 0] 1 0
r 39.331047626 _2_ RTR  --- 30 tcp 1040 [13a 2 0 800] ------- [0:0 1:0 30 2] [14 0] 1 0
f 39.331047626 _2_ RTR  --- 30 tcp 1040 [13a 2 0 800] ------- [0:0 1:0 29 1] [14 0] 1 0
r 39.332913542 _0_ AGT  --- 27 ack 40 [13a 0 2 800] ------- [1:0 0:0 29 0] [11 0] 2 0
s 39.332913542 _0_ AGT  --- 31 tcp 1040 [0 0 0 0] ------- [0:0 1:0 32 0] [15 0] 0 0
r 39.332913542 _0_ RTR  --- 31 tcp 1040 [0 0 0 0] ------- [0:0 1:0 32 0] [15 0] 0 0
s 39.332913542 _0_ RTR  --- 31 tcp 1040 [0 0 0 0] ------- [0:0 1:0 30 2] [15 0] 0 0
r 39.342879458 _2_ RTR  --- 31 tcp 1040 [13a 2 0 800] ------- [0:0 1:0 30 2] [15 0] 1 0
f 39.342879458 _2_ RTR  --- 31 tcp 1040 [13a 2 0 800] ------- [0:0 1:0 29 1] [15 0] 1 0
r 39.353025686 _1_ AGT  --- 29 tcp 1040 [13a 1 2 800] ------- [0:0 1:0 29 1] [13 0] 2 0
s 39.353025686 _1_ AGT  --- 32 ack 40 [0 0 0 0] ------- [1:0 0:0 32 0] [13 0] 0 0
r 39.353025686 _1_ RTR  --- 32 ack 40 [0 0 0 0] ------- [1:0 0:0 32 0] [13 0] 0 0
s 39.353025686 _1_ RTR  --- 32 ack 40 [0 0 0 0] ------- [1:0 0:0 30 2] [13 0] 0 0
r 39.354971914 _2_ RTR  --- 32 ack 40 [13a 2 1 800] ------- [1:0 0:0 30 2] [13 0] 1 0
f 39.354971914 _2_ RTR  --- 32 ack 40 [13a 2 1 800] ------- [1:0 0:0 29 0] [13 0] 1 0
r 39.356857830 _0_ AGT  --- 28 ack 40 [13a 0 2 800] ------- [1:0 0:0 29 0] [12 0] 2 0
s 39.356857830 _0_ AGT  --- 33 tcp 1040 [0 0 0 0] ------- [0:0 1:0 32 0] [16 0] 0 0
r 39.356857830 _0_ RTR  --- 33 tcp 1040 [0 0 0 0] ------- [0:0 1:0 32 0] [16 0] 0 0
s 39.356857830 _0_ AGT  --- 34 tcp 1040 [0 0 0 0] ------- [0:0 1:0 32 0] [17 0] 0 0
r 39.356857830 _0_ RTR  --- 34 tcp 1040 [0 0 0 0] ------- [0:0 1:0 32 0] [17 0] 0 0
s 39.356857830 _0_ RTR  --- 33 tcp 1040 [0 0 0 0] ------- [0:0 1:0 30 2] [16 0] 0 0
s 39.356857830 _0_ RTR  --- 34 tcp 1040 [0 0 0 0] ------- [0:0 1:0 30 2] [17 0] 0 0
r 39.366684696 _1_ AGT  --- 30 tcp 1040 [13a 1 2 800] ------- [0:0 1:0 29 1] [14 0] 2 0
s 39.366684696 _1_ AGT  --- 35 ack 40 [0 0 0 0] ------- [1:0 0:0 32 0] [14 0] 0 0
r 39.366684696 _1_ RTR  --- 35 ack 40 [0 0 0 0] ------- [1:0 0:0 32 0] [14 0] 0 0
s 39.366684696 _1_ RTR  --- 35 ack 40 [0 0 0 0] ------- [1:0 0:0 30 2] [14 0] 0 0
r 39.376651666 _1_ AGT  --- 31 tcp 1040 [13a 1 2 800] ------- [0:0 1:0 29 1] [15 0] 2 0
s 39.376651666 _1_ AGT  --- 36 ack 40 [0 0 0 0] ------- [1:0 0:0 32 0] [15 0] 0 0
r 39.376651666 _1_ RTR  --- 36 ack 40 [0 0 0 0] ------- [1:0 0:0 32 0] [15 0] 0 0
s 39.376651666 _1_ RTR  --- 36 ack 40 [0 0 0 0] ------- [1:0 0:0 30 2] [15 0] 0 0
r 39.378517893 _2_ RTR  --- 35 ack 40 [13a 2 1 800] ------- [1:0 0:0 30 2] [14 0] 1 0
f 39.378517893 _2_ RTR  --- 35 ack 40 [13a 2 1 800] ------- [1:0 0:0 29 0] [14 0] 1 0
r 39.388494303 _2_ RTR  --- 33 tcp 1040 [13a 2 0 800] ------- [0:0 1:0 30 2] [16 0] 1 0
f 39.388494303 _2_ RTR  --- 33 tcp 1040 [13a 2 0 800] ------- [0:0 1:0 29 1] [16 0] 1 0
r 39.390520217 _0_ AGT  --- 32 ack 40 [13a 0 2 800] ------- [1:0 0:0 29 0] [13 0] 2 0
s 39.390520217 _0_ AGT  --- 37 tcp 1040 [0 0 0 0] ------- [0:0 1:0 32 0] [18 0] 0 0
r 39.390520217 _0_ RTR  --- 37 tcp 1040 [0 0 0 0] ------- [0:0 1:0 32 0] [18 0] 0 0
s 39.390520217 _0_ RTR  --- 37 tcp 1040 [0 0 0 0] ------- [0:0 1:0 30 2] [18 0] 0 0
r 39.400586131 _2_ RTR  --- 34 tcp 1040 [13a 2 0 800] ------- [0:0 1:0 30 2] [17 0] 1 0
f 39.400586131 _2_ RTR  --- 34 tcp 1040 [13a 2 0 800] ------- [0:0 1:0 29 1] [17 0] 1 0
r 39.402502957 _2_ RTR  --- 36 ack 40 [13a 2 1 800] ------- [1:0 0:0 30 2] [15 0] 1 0
f 39.402502957 _2_ RTR  --- 36 ack 40 [13a 2 1 800] ------- [1:0 0:0 29 0] [15 0] 1 0
r 39.404528870 _0_ AGT  --- 35 ack 40 [13a 0 2 800] ------- [1:0 0:0 29 0] [14 0] 2 0
s 39.404528870 _0_ AGT  --- 38 tcp 1040 [0 0 0 0] ------- [0:0 1:0 32 0] [19 0] 0 0
r 39.404528870 _0_ RTR  --- 38 tcp 1040 [0 0 0 0] ------- [0:0 1:0 32 0] [19 0] 0 0
s 39.404528870 _0_ RTR  --- 38 tcp 1040 [0 0 0 0] ------- [0:0 1:0 30 2] [19 0] 0 0
r 39.414375734 _1_ AGT  --- 33 tcp 1040 [13a 1 2 800] ------- [0:0 1:0 29 1] [16 0] 2 0
s 39.414375734 _1_ AGT  --- 39 ack 40 [0 0 0 0] ------- [1:0 0:0 32 0] [16 0] 0 0
r 39.414375734 _1_ RTR  --- 39 ack 40 [0 0 0 0] ------- [1:0 0:0 32 0] [16 0] 0 0
s 39.414375734 _1_ RTR  --- 39 ack 40 [0 0 0 0] ------- [1:0 0:0 30 2] [16 0] 0 0
r 39.424302701 _1_ AGT  --- 34 tcp 1040 [13a 1 2 800] ------- [0:0 1:0 29 1] [17 0] 2 0
s 39.424302701 _1_ AGT  --- 40 ack 40 [0 0 0 0] ------- [1:0 0:0 32 0] [17 0] 0 0
r 39.424302701 _1_ RTR  --- 40 ack 40 [0 0 0 0] ------- [1:0 0:0 32 0] [17 0] 0 0
s 39.424302701 _1_ RTR  --- 40 ack 40 [0 0 0 0] ------- [1:0 0:0 30 2] [17 0] 0 0
r 39.426129356 _0_ AGT  --- 36 ack 40 [13a 0 2 800] ------- [1:0 0:0 29 0] [15 0] 2 0
s 39.426129356 _0_ AGT  --- 41 tcp 1040 [0 0 0 0] ------- [0:0 1:0 32 0] [20 0] 0 0
r 39.426129356 _0_ RTR  --- 41 tcp 1040 [0 0 0 0] ------- [0:0 1:0 32 0] [20 0] 0 0
s 39.426129356 _0_ RTR  --- 41 tcp 1040 [0 0 0 0] ------- [0:0 1:0 30 2] [20 0] 0 0
r 39.436035269 _2_ RTR  --- 37 tcp 1040 [13a 2 0 800] ------- [0:0 1:0 30 2] [18 0] 1 0
f 39.436035269 _2_ RTR  --- 37 tcp 1040 [13a 2 0 800] ------- [0:0 1:0 29 1] [18 0] 1 0
r 39.438072092 _2_ RTR  --- 39 ack 40 [13a 2 1 800] ------- [1:0 0:0 30 2] [16 0] 1 0
f 39.438072092 _2_ RTR  --- 39 ack 40 [13a 2 1 800] ------- [1:0 0:0 29 0] [16 0] 1 0
r 39.448218316 _1_ AGT  --- 37 tcp 1040 [13a 1 2 800] ------- [0:0 1:0 29 1] [18 0] 2 0
s 39.448218316 _1_ AGT  --- 42 ack 40 [0 0 0 0] ------- [1:0 0:0 32 0] [18 0] 0 0
r 39.448218316 _1_ RTR  --- 42 ack 40 [0 0 0 0] ------- [1:0 0:0 32 0] [18 0] 0 0
s 39.448218316 _1_ RTR  --- 42 ack 40 [0 0 0 0] ------- [1:0 0:0 30 2] [18 0] 0 0
r 39.450064970 _0_ AGT  --- 39 ack 40 [13a 0 2 800] ------- [1:0 0:0 29 0] [16 0] 2 0
s 39.450064970 _0_ AGT  --- 43 tcp 1040 [0 0 0 0] ------- [0:0 1:0 32 0] [21 0] 0 0
r 39.450064970 _0_ RTR  --- 43 tcp 1040 [0 0 0 0] ------- [0:0 1:0 32 0] [21 0] 0 0
s 39.450064970 _0_ RTR  --- 43 tcp 1040 [0 0 0 0] ------- [0:0 1:0 30 2] [21 0] 0 0
r 39.460030882 _2_ RTR  --- 38 tcp 1040 [13a 2 0 800] ------- [0:0 1:0 30 2] [19 0] 1 0
f 39.460030882 _2_ RTR  --- 38 tcp 1040 [13a 2 0 800] ------- [0:0 1:0 29 1] [19 0] 1 0
r 39.469917105 _1_ AGT  --- 38 tcp 1040 [13a 1 2 800] ------- [0:0 1:0 29 1] [19 0] 2 0
s 39.469917105 _1_ AGT  --- 44 ack 40 [0 0 0 0] ------- [1:0 0:0 32 0] [19 0] 0 0
r 39.469917105 _1_ RTR  --- 44 ack 40 [0 0 0 0] ------- [1:0 0:0 32 0] [19 0] 0 0
s 39.469917105 _1_ RTR  --- 44 ack 40 [0 0 0 0] ------- [1:0 0:0 30 2] [19 0] 0 0
r 39.471843328 _2_ RTR  --- 40 ack 40 [13a 2 1 800] ------- [1:0 0:0 30 2] [17 0] 1 0
f 39.471843328 _2_ RTR  --- 40 ack 40 [13a 2 1 800] ------- [1:0 0:0 29 0] [17 0] 1 0
r 39.473689239 _0_ AGT  --- 40 ack 40 [13a 0 2 800] ------- [1:0 0:0 29 0] [17 0] 2 0
s 39.473689239 _0_ AGT  --- 45 tcp 1040 [0 0 0 0] ------- [0:0 1:0 32 0] [22 0] 0 0
r 39.473689239 _0_ RTR  --- 45 tcp 1040 [0 0 0 0] ------- [0:0 1:0 32 0] [22 0] 0 0
s 39.473689239 _0_ AGT  --- 46 tcp 1040 [0 0 0 0] ------- [0:0 1:0 32 0] [23 0] 0 0
r 39.473689239 _0_ RTR  --- 46 tcp 1040 [0 0 0 0] ------- [0:0 1:0 32 0] [23 0] 0 0
s 39.473689239 _0_ RTR  --- 45 tcp 1040 [0 0 0 0] ------- [0:0 1:0 30 2] [22 0] 0 0
s 39.473689239 _0_ RTR  --- 46 tcp 1040 [0 0 0 0] ------- [0:0 1:0 30 2] [23 0] 0 0
r 39.483735151 _2_ RTR  --- 41 tcp 1040 [13a 2 0 800] ------- [0:0 1:0 30 2] [20 0] 1 0
f 39.483735151 _2_ RTR  --- 41 tcp 1040 [13a 2 0 800] ------- [0:0 1:0 29 1] [20 0] 1 0
r 39.493801373 _1_ AGT  --- 41 tcp 1040 [13a 1 2 800] ------- [0:0 1:0 29 1] [20 0] 2 0
s 39.493801373 _1_ AGT  --- 47 ack 40 [0 0 0 0] ------- [1:0 0:0 32 0] [20 0] 0 0
r 39.493801373 _1_ RTR  --- 47 ack 40 [0 0 0 0] ------- [1:0 0:0 32 0] [20 0] 0 0
s 39.493801373 _1_ RTR  --- 47 ack 40 [0 0 0 0] ------- [1:0 0:0 30 2] [20 0] 0 0
r 39.495827594 _2_ RTR  --- 42 ack 40 [13a 2 1 800] ------- [1:0 0:0 30 2] [18 0] 1 0
f 39.495827594 _2_ RTR  --- 42 ack 40 [13a 2 1 800] ------- [1:0 0:0 29 0] [18 0] 1 0
r 39.505864000 _2_ RTR  --- 43 tcp 1040 [13a 2 0 800] ------- [0:0 1:0 30 2] [21 0] 1 0
f 39.505864000 _2_ RTR  --- 43 tcp 1040 [13a 2 0 800] ------- [0:0 1:0 29 1] [21 0] 1 0
r 39.507789911 _0_ AGT  --- 42 ack 40 [13a 0 2 800] ------- [1:0 0:0 29 0] [18 0] 2 0
s 39.507789911 _0_ AGT  --- 48 tcp 1040 [0 0 0 0] ------- [0:0 1:0 32 0] [24 0] 0 0
r 39.507789911 _0_ RTR  --- 48 tcp 1040 [0 0 0 0] ------- [0:0 1:0 32 0] [24 0] 0 0
s 39.507789911 _0_ RTR  --- 48 tcp 1040 [0 0 0 0] ------- [0:0 1:0 30 2] [24 0] 0 0
r 39.517715822 _2_ RTR  --- 45 tcp 1040 [13a 2 0 800] ------- [0:0 1:0 30 2] [22 0] 1 0
f 39.517715822 _2_ RTR  --- 45 tcp 1040 [13a 2 0 800] ------- [0:0 1:0 29 1] [22 0] 1 0
r 39.519672639 _2_ RTR  --- 44 ack 40 [13a 2 1 800] ------- [1:0 0:0 30 2] [19 0] 1 0
f 39.519672639 _2_ RTR  --- 44 ack 40 [13a 2 1 800] ------- [1:0 0:0 29 0] [19 0] 1 0
r 39.529609044 _2_ RTR  --- 46 tcp 1040 [13a 2 0 800] ------- [0:0 1:0 30 2] [23 0] 1 0
f 39.529609044 _2_ RTR  --- 46 tcp 1040 [13a 2 0 800] ------- [0:0 1:0 29 1] [23 0] 1 0
r 39.531525861 _2_ RTR  --- 47 ack 40 [13a 2 1 800] ------- [1:0 0:0 30 2] [20 0] 1 0
f 39.531525861 _2_ RTR  --- 47 ack 40 [13a 2 1 800] ------- [1:0 0:0 29 0] [20 0] 1 0
r 39.541512081 _1_ AGT  --- 43 tcp 1040 [13a 1 2 800] ------- [0:0 1:0 29 1] [21 0] 2 0
s 39.541512081 _1_ AGT  --- 49 ack 40 [0 0 0 0] ------- [1:0 0:0 32 0] [21 0] 0 0
r 39.541512081 _1_ RTR  --- 49 ack 40 [0 0 0 0] ------- [1:0 0:0 32 0] [21 0] 0 0
s 39.541512081 _1_ RTR  --- 49 ack 40 [0 0 0 0] ------- [1:0 0:0 30 2] [21 0] 0 0
r 39.551339039 _1_ AGT  --- 45 tcp 1040 [13a 1 2 800] ------- [0:0 1:0 29 1] [22 0] 2 0
s 39.551339039 _1_ AGT  --- 50 ack 40 [0 0 0 0] ------- [1:0 0:0 32 0] [22 0] 0 0
r 39.551339039 _1_ RTR  --- 50 ack 40 [0 0 0 0] ------- [1:0 0:0 32 0] [22 0] 0 0
s 39.551339039 _1_ RTR  --- 50 ack 40 [0 0 0 0] ------- [1:0 0:0 30 2] [22 0] 0 0
r 39.553265258 _2_ RTR  --- 49 ack 40 [13a 2 1 800] ------- [1:0 0:0 30 2] [21 0] 1 0
f 39.553265258 _2_ RTR  --- 49 ack 40 [13a 2 1 800] ------- [1:0 0:0 29 0] [21 0] 1 0
r 39.563201662 _2_ RTR  --- 48 tcp 1040 [13a 2 0 800] ------- [0:0 1:0 30 2] [24 0] 1 0
f 39.563201662 _2_ RTR  --- 48 tcp 1040 [13a 2 0 800] ------- [0:0 1:0 29 1] [24 0] 1 0
r 39.565387571 _0_ AGT  --- 44 ack 40 [13a 0 2 800] ------- [1:0 0:0 29 0] [19 0] 2 0
s 39.565387571 _0_ AGT  --- 51 tcp 1040 [0 0 0 0] ------- [0:0 1:0 32 0] [25 0] 0 0
r 39.565387571 _0_ RTR  --- 51 tcp 1040 [0 0 0 0] ------- [0:0 1:0 32 0] [25 0] 0 0
s 39.565387571 _0_ RTR  --- 51 tcp 1040 [0 0 0 0] ------- [0:0 1:0 30 2] [25 0] 0 0
r 39.575453480 _2_ RTR  --- 51 tcp 1040 [13a 2 0 800] ------- [0:0 1:0 30 2] [25 0] 1 0
f 39.575453480 _2_ RTR  --- 51 tcp 1040 [13a 2 0 800] ------- [0:0 1:0 29 1] [25 0] 1 0
r 39.577490294 _2_ RTR  --- 50 ack 40 [13a 2 1 800] ------- [1:0 0:0 30 2] [22 0] 1 0
f 39.577490294 _2_ RTR  --- 50 ack 40 [13a 2 1 800] ------- [1:0 0:0 29 0] [22 0] 1 0
r 39.587476511 _1_ AGT  --- 46 tcp 1040 [13a 1 2 800] ------- [0:0 1:0 29 1] [23 0] 2 0
s 39.587476511 _1_ AGT  --- 52 ack 40 [0 0 0 0] ------- [1:0 0:0 32 0] [23 0] 0 0
r 39.587476511 _1_ RTR  --- 52 ack 40 [0 0 0 0] ------- [1:0 0:0 32 0] [23 0] 0 0
s 39.587476511 _1_ RTR  --- 52 ack 40 [0 0 0 0] ------- [1:0 0:0 30 2] [23 0] 0 0
r 39.589443159 _0_ AGT  --- 47 ack 40 [13a 0 2 800] ------- [1:0 0:0 29 0] [20 0] 2 0
s 39.589443159 _0_ AGT  --- 53 tcp 1040 [0 0 0 0] ------- [0:0 1:0 32 0] [26 0] 0 0
r 39.589443159 _0_ RTR  --- 53 tcp 1040 [0 0 0 0] ------- [0:0 1:0 32 0] [26 0] 0 0
s 39.589443159 _0_ RTR  --- 53 tcp 1040 [0 0 0 0] ------- [0:0 1:0 30 2] [26 0] 0 0
r 39.599509068 _2_ RTR  --- 53 tcp 1040 [13a 2 0 800] ------- [0:0 1:0 30 2] [26 0] 1 0
f 39.599509068 _2_ RTR  --- 53 tcp 1040 [13a 2 0 800] ------- [0:0 1:0 29 1] [26 0] 1 0
r 39.601625880 _2_ RTR  --- 52 ack 40 [13a 2 1 800] ------- [1:0 0:0 30 2] [23 0] 1 0
f 39.601625880 _2_ RTR  --- 52 ack 40 [13a 2 1 800] ------- [1:0 0:0 29 0] [23 0] 1 0
r 39.603471788 _0_ AGT  --- 49 ack 40 [13a 0 2 800] ------- [1:0 0:0 29 0] [21 0] 2 0
s 39.603471788 _0_ AGT  --- 54 tcp 1040 [0 0 0 0] ------- [0:0 1:0 32 0] [27 0] 0 0
r 39.603471788 _0_ RTR  --- 54 tcp 1040 [0 0 0 0] ------- [0:0 1:0 32 0] [27 0] 0 0
s 39.603471788 _0_ RTR  --- 54 tcp 1040 [0 0 0 0] ------- [0:0 1:0 30 2] [27 0] 0 0
r 39.613297696 _2_ RTR  --- 54 tcp 1040 [13a 2 0 800] ------- [0:0 1:0 30 2] [27 0] 1 0
f 39.613297696 _2_ RTR  --- 54 tcp 1040 [13a 2 0 800] ------- [0:0 1:0 29 1] [27 0] 1 0
r 39.623503912 _1_ AGT  --- 48 tcp 1040 [13a 1 2 800] ------- [0:0 1:0 29 1] [24 0] 2 0
s 39.623503912 _1_ AGT  --- 55 ack 40 [0 0 0 0] ------- [1:0 0:0 32 0] [24 0] 0 0
r 39.623503912 _1_ RTR  --- 55 ack 40 [0 0 0 0] ------- [1:0 0:0 32 0] [24 0] 0 0
s 39.623503912 _1_ RTR  --- 55 ack 40 [0 0 0 0] ------- [1:0 0:0 30 2] [24 0] 0 0
r 39.633330865 _1_ AGT  --- 51 tcp 1040 [13a 1 2 800] ------- [0:0 1:0 29 1] [25 0] 2 0
s 39.633330865 _1_ AGT  --- 56 ack 40 [0 0 0 0] ------- [1:0 0:0 32 0] [25 0] 0 0
r 39.633330865 _1_ RTR  --- 56 ack 40 [0 0 0 0] ------- [1:0 0:0 32 0] [25 0] 0 0
s 39.633330865 _1_ RTR  --- 56 ack 40 [0 0 0 0] ------- [1:0 0:0 30 2] [25 0] 0 0
r 39.635277511 _0_ AGT  --- 50 ack 40 [13a 0 2 800] ------- [1:0 0:0 29 0] [22 0] 2 0
s 39.635277511 _0_ AGT  --- 57 tcp 1040 [0 0 0 0] ------- [0:0 1:0 32 0] [28 0] 0 0
r 39.635277511 _0_ RTR  --- 57 tcp 1040 [0 0 0 0] ------- [0:0 1:0 32 0] [28 0] 0 0
s 39.635277511 _0_ RTR  --- 57 tcp 1040 [0 0 0 0] ------- [0:0 1:0 30 2] [28 0] 0 0
r 39.645243418 _2_ RTR  --- 57 tcp 1040 [13a 2 0 800] ------- [0:0 1:0 30 2] [28 0] 1 0
f 39.645243418 _2_ RTR  --- 57 tcp 1040 [13a 2 0 800] ------- [0:0 1:0 29 1] [28 0] 1 0
r 39.647240228 _2_ RTR  --- 55 ack 40 [13a 2 1 800] ------- [1:0 0:0 30 2] [24 0] 1 0
f 39.647240228 _2_ RTR  --- 55 ack 40 [13a 2 1 800] ------- [1:0 0:0 29 0] [24 0] 1 0
r 39.657146442 _1_ AGT  --- 53 tcp 1040 [13a 1 2 800] ------- [0:0 1:0 29 1] [26 0] 2 0